unknown system                          
           1
     6.532547    0.000000    0.000000
     2.118649    6.179442    0.000000
    -4.325598   -3.089721    3.796973
   Ga   Cu   S 
     2     2     4
Direct configuration=     1
   0.50000000  0.50000000  0.00000000
   0.25000000  0.75000000  0.50000000
   0.00000000  0.00000000  0.00000000
   0.75000000  0.25000000  0.50000000
   0.37500000  0.87566000  0.00066000
   0.87500000  0.37434000  0.99934000
   0.62566000  0.62500000  0.50066000
   0.12434000  0.12500000  0.49934000
