   2   2   0   0
  0.1971582E+02  0.3820498E-09  0.3820498E-09  0.3820498E-09  0.5000000E-15
  1.000000000000000E-004
  CAR 
 unknown system                          
     22.85355158     -7.45962391  301      6.18762030      1.00000000
     -7.460  0.0000E+00  0.0000E+00
     -7.359  0.0000E+00  0.0000E+00
     -7.258  0.0000E+00  0.0000E+00
     -7.156  0.0000E+00  0.0000E+00
     -7.055  0.0000E+00  0.0000E+00
     -6.954  0.0000E+00  0.0000E+00
     -6.853  0.0000E+00  0.0000E+00
     -6.752  0.0000E+00  0.0000E+00
     -6.651  0.0000E+00  0.0000E+00
     -6.550  0.0000E+00  0.0000E+00
     -6.449  0.0000E+00  0.0000E+00
     -6.348  0.2214E-16  0.2237E-17
     -6.247  0.2495E-08  0.2522E-09
     -6.146  0.1620E-03  0.1637E-04
     -6.045  0.2142E-01  0.2181E-02
     -5.944  0.9528E-01  0.1181E-01
     -5.843  0.1462E+00  0.2658E-01
     -5.742  0.1830E+00  0.4507E-01
     -5.641  0.2141E+00  0.6670E-01
     -5.540  0.2418E+00  0.9113E-01
     -5.439  0.2672E+00  0.1181E+00
     -5.338  0.2912E+00  0.1476E+00
     -5.237  0.3140E+00  0.1793E+00
     -5.136  0.3361E+00  0.2132E+00
     -5.035  0.3575E+00  0.2494E+00
     -4.934  0.3787E+00  0.2876E+00
     -4.832  0.3998E+00  0.3280E+00
     -4.731  0.4208E+00  0.3705E+00
     -4.630  0.4422E+00  0.4152E+00
     -4.529  0.4642E+00  0.4621E+00
     -4.428  0.4869E+00  0.5113E+00
     -4.327  0.5106E+00  0.5629E+00
     -4.226  0.5361E+00  0.6171E+00
     -4.125  0.5640E+00  0.6741E+00
     -4.024  0.5957E+00  0.7343E+00
     -3.923  0.6333E+00  0.7983E+00
     -3.822  0.6824E+00  0.8672E+00
     -3.721  0.7656E+00  0.9446E+00
     -3.620  0.8611E+00  0.1032E+01
     -3.519  0.8453E+00  0.1117E+01
     -3.418  0.8117E+00  0.1199E+01
     -3.317  0.7781E+00  0.1278E+01
     -3.216  0.7447E+00  0.1353E+01
     -3.115  0.7112E+00  0.1425E+01
     -3.014  0.6776E+00  0.1493E+01
     -2.913  0.6438E+00  0.1558E+01
     -2.812  0.6097E+00  0.1620E+01
     -2.711  0.5750E+00  0.1678E+01
     -2.610  0.5391E+00  0.1732E+01
     -2.508  0.5022E+00  0.1783E+01
     -2.407  0.4633E+00  0.1830E+01
     -2.306  0.4225E+00  0.1873E+01
     -2.205  0.3786E+00  0.1911E+01
     -2.104  0.3291E+00  0.1944E+01
     -2.003  0.2706E+00  0.1972E+01
     -1.902  0.1917E+00  0.1991E+01
     -1.801  0.9543E-01  0.2001E+01
     -1.700  0.8500E-01  0.2009E+01
     -1.599  0.1441E+00  0.2024E+01
     -1.498  0.2138E+00  0.2045E+01
     -1.397  0.2774E+00  0.2073E+01
     -1.296  0.3382E+00  0.2108E+01
     -1.195  0.4006E+00  0.2148E+01
     -1.094  0.4736E+00  0.2196E+01
     -0.993  0.6828E+00  0.2265E+01
     -0.892  0.1161E+01  0.2382E+01
     -0.791  0.1609E+01  0.2545E+01
     -0.690  0.1153E+01  0.2661E+01
     -0.589  0.9207E+00  0.2754E+01
     -0.488  0.8001E+00  0.2835E+01
     -0.387  0.7173E+00  0.2908E+01
     -0.286  0.6539E+00  0.2974E+01
     -0.184  0.6025E+00  0.3035E+01
     -0.083  0.5591E+00  0.3091E+01
      0.018  0.5215E+00  0.3144E+01
      0.119  0.4883E+00  0.3193E+01
      0.220  0.4585E+00  0.3239E+01
      0.321  0.4316E+00  0.3283E+01
      0.422  0.4070E+00  0.3324E+01
      0.523  0.3846E+00  0.3363E+01
      0.624  0.3641E+00  0.3400E+01
      0.725  0.3446E+00  0.3435E+01
      0.826  0.3260E+00  0.3468E+01
      0.927  0.3086E+00  0.3499E+01
      1.028  0.2929E+00  0.3528E+01
      1.129  0.2788E+00  0.3557E+01
      1.230  0.2645E+00  0.3583E+01
      1.331  0.2501E+00  0.3609E+01
      1.432  0.2373E+00  0.3633E+01
      1.533  0.3088E+00  0.3664E+01
      1.634  0.5895E+00  0.3723E+01
      1.735  0.8378E+00  0.3808E+01
      1.836  0.1127E+01  0.3922E+01
      1.937  0.1170E+01  0.4040E+01
      2.039  0.1094E+01  0.4151E+01
      2.140  0.1029E+01  0.4255E+01
      2.241  0.1005E+01  0.4356E+01
      2.342  0.1003E+01  0.4457E+01
      2.443  0.1011E+01  0.4560E+01
      2.544  0.1031E+01  0.4664E+01
      2.645  0.1057E+01  0.4771E+01
      2.746  0.1087E+01  0.4880E+01
      2.847  0.1132E+01  0.4995E+01
      2.948  0.1191E+01  0.5115E+01
      3.049  0.1287E+01  0.5245E+01
      3.150  0.1452E+01  0.5392E+01
      3.251  0.1488E+01  0.5542E+01
      3.352  0.1463E+01  0.5690E+01
      3.453  0.1438E+01  0.5835E+01
      3.554  0.1404E+01  0.5977E+01
      3.655  0.1379E+01  0.6117E+01
      3.756  0.1353E+01  0.6253E+01
      3.857  0.1324E+01  0.6387E+01
      3.958  0.1299E+01  0.6518E+01
      4.059  0.1272E+01  0.6647E+01
      4.160  0.1250E+01  0.6773E+01
      4.261  0.1222E+01  0.6897E+01
      4.363  0.1195E+01  0.7018E+01
      4.464  0.1174E+01  0.7136E+01
      4.565  0.1147E+01  0.7252E+01
      4.666  0.1126E+01  0.7366E+01
      4.767  0.1093E+01  0.7476E+01
      4.868  0.9300E+00  0.7570E+01
      4.969  0.7559E+00  0.7647E+01
      5.070  0.6435E+00  0.7712E+01
      5.171  0.5571E+00  0.7768E+01
      5.272  0.4853E+00  0.7817E+01
      5.373  0.4196E+00  0.7859E+01
      5.474  0.3617E+00  0.7896E+01
      5.575  0.3089E+00  0.7927E+01
      5.676  0.2579E+00  0.7953E+01
      5.777  0.2075E+00  0.7974E+01
      5.878  0.1551E+00  0.7990E+01
      5.979  0.8805E-01  0.7999E+01
      6.080  0.1238E-01  0.8000E+01
      6.181  0.3213E-04  0.8000E+01
      6.282  0.1179E-09  0.8000E+01
      6.383  0.4066E-08  0.8000E+01
      6.484  0.2017E-03  0.8000E+01
      6.585  0.2278E-01  0.8002E+01
      6.687  0.1085E+00  0.8013E+01
      6.788  0.2080E+00  0.8034E+01
      6.889  0.2860E+00  0.8063E+01
      6.990  0.3488E+00  0.8098E+01
      7.091  0.4062E+00  0.8139E+01
      7.192  0.4579E+00  0.8186E+01
      7.293  0.5071E+00  0.8237E+01
      7.394  0.5624E+00  0.8294E+01
      7.495  0.6061E+00  0.8355E+01
      7.596  0.6653E+00  0.8422E+01
      7.697  0.7541E+00  0.8498E+01
      7.798  0.8486E+00  0.8584E+01
      7.899  0.9444E+00  0.8680E+01
      8.000  0.1039E+01  0.8785E+01
      8.101  0.1162E+01  0.8902E+01
      8.202  0.1332E+01  0.9037E+01
      8.303  0.1558E+01  0.9194E+01
      8.404  0.1579E+01  0.9354E+01
      8.505  0.1538E+01  0.9509E+01
      8.606  0.1466E+01  0.9657E+01
      8.707  0.1305E+01  0.9789E+01
      8.808  0.1195E+01  0.9910E+01
      8.909  0.1109E+01  0.1002E+02
      9.011  0.1089E+01  0.1013E+02
      9.112  0.1072E+01  0.1024E+02
      9.213  0.1289E+01  0.1037E+02
      9.314  0.1975E+01  0.1057E+02
      9.415  0.2221E+01  0.1079E+02
      9.516  0.1828E+01  0.1098E+02
      9.617  0.1583E+01  0.1114E+02
      9.718  0.1587E+01  0.1130E+02
      9.819  0.1598E+01  0.1146E+02
      9.920  0.1547E+01  0.1162E+02
     10.021  0.1508E+01  0.1177E+02
     10.122  0.1280E+01  0.1190E+02
     10.223  0.1183E+01  0.1202E+02
     10.324  0.1185E+01  0.1214E+02
     10.425  0.1126E+01  0.1225E+02
     10.526  0.1281E+01  0.1238E+02
     10.627  0.1285E+01  0.1251E+02
     10.728  0.1317E+01  0.1264E+02
     10.829  0.1219E+01  0.1277E+02
     10.930  0.1211E+01  0.1289E+02
     11.031  0.1220E+01  0.1301E+02
     11.132  0.1179E+01  0.1313E+02
     11.234  0.1194E+01  0.1325E+02
     11.335  0.1161E+01  0.1337E+02
     11.436  0.1154E+01  0.1349E+02
     11.537  0.1141E+01  0.1360E+02
     11.638  0.1127E+01  0.1372E+02
     11.739  0.1117E+01  0.1383E+02
     11.840  0.1103E+01  0.1394E+02
     11.941  0.1028E+01  0.1404E+02
     12.042  0.1058E+01  0.1415E+02
     12.143  0.9840E+00  0.1425E+02
     12.244  0.1058E+01  0.1436E+02
     12.345  0.1013E+01  0.1446E+02
     12.446  0.1065E+01  0.1457E+02
     12.547  0.1048E+01  0.1467E+02
     12.648  0.1137E+01  0.1479E+02
     12.749  0.1256E+01  0.1491E+02
     12.850  0.1239E+01  0.1504E+02
     12.951  0.1167E+01  0.1516E+02
     13.052  0.1133E+01  0.1527E+02
     13.153  0.1056E+01  0.1538E+02
     13.254  0.1118E+01  0.1549E+02
     13.355  0.1091E+01  0.1560E+02
     13.456  0.1092E+01  0.1571E+02
     13.558  0.1194E+01  0.1583E+02
     13.659  0.1127E+01  0.1595E+02
     13.760  0.1347E+01  0.1608E+02
     13.861  0.1315E+01  0.1622E+02
     13.962  0.1344E+01  0.1635E+02
     14.063  0.1303E+01  0.1648E+02
     14.164  0.1124E+01  0.1660E+02
     14.265  0.1277E+01  0.1673E+02
     14.366  0.1032E+01  0.1683E+02
     14.467  0.1131E+01  0.1694E+02
     14.568  0.1134E+01  0.1706E+02
     14.669  0.1097E+01  0.1717E+02
     14.770  0.1249E+01  0.1730E+02
     14.871  0.1188E+01  0.1742E+02
     14.972  0.1301E+01  0.1755E+02
     15.073  0.1288E+01  0.1768E+02
     15.174  0.1283E+01  0.1781E+02
     15.275  0.1352E+01  0.1794E+02
     15.376  0.1363E+01  0.1808E+02
     15.477  0.1358E+01  0.1822E+02
     15.578  0.1368E+01  0.1836E+02
     15.679  0.1324E+01  0.1849E+02
     15.780  0.1334E+01  0.1863E+02
     15.882  0.1311E+01  0.1876E+02
     15.983  0.1338E+01  0.1889E+02
     16.084  0.1282E+01  0.1902E+02
     16.185  0.1327E+01  0.1916E+02
     16.286  0.1200E+01  0.1928E+02
     16.387  0.1266E+01  0.1941E+02
     16.488  0.1173E+01  0.1952E+02
     16.589  0.1156E+01  0.1964E+02
     16.690  0.1180E+01  0.1976E+02
     16.791  0.1104E+01  0.1987E+02
     16.892  0.1178E+01  0.1999E+02
     16.993  0.1157E+01  0.2011E+02
     17.094  0.1206E+01  0.2023E+02
     17.195  0.1346E+01  0.2037E+02
     17.296  0.1385E+01  0.2051E+02
     17.397  0.1296E+01  0.2064E+02
     17.498  0.1284E+01  0.2077E+02
     17.599  0.1166E+01  0.2088E+02
     17.700  0.1129E+01  0.2100E+02
     17.801  0.1123E+01  0.2111E+02
     17.902  0.1079E+01  0.2122E+02
     18.003  0.1235E+01  0.2135E+02
     18.104  0.1251E+01  0.2147E+02
     18.206  0.1313E+01  0.2160E+02
     18.307  0.1381E+01  0.2174E+02
     18.408  0.1434E+01  0.2189E+02
     18.509  0.1387E+01  0.2203E+02
     18.610  0.1406E+01  0.2217E+02
     18.711  0.1340E+01  0.2231E+02
     18.812  0.1338E+01  0.2244E+02
     18.913  0.1293E+01  0.2257E+02
     19.014  0.1207E+01  0.2269E+02
     19.115  0.1148E+01  0.2281E+02
     19.216  0.1005E+01  0.2291E+02
     19.317  0.1023E+01  0.2302E+02
     19.418  0.9449E+00  0.2311E+02
     19.519  0.8419E+00  0.2320E+02
     19.620  0.7978E+00  0.2328E+02
     19.721  0.6720E+00  0.2334E+02
     19.822  0.6378E+00  0.2341E+02
     19.923  0.6242E+00  0.2347E+02
     20.024  0.5853E+00  0.2353E+02
     20.125  0.5749E+00  0.2359E+02
     20.226  0.5943E+00  0.2365E+02
     20.327  0.5697E+00  0.2371E+02
     20.428  0.5938E+00  0.2377E+02
     20.530  0.6061E+00  0.2383E+02
     20.631  0.5042E+00  0.2388E+02
     20.732  0.3631E+00  0.2392E+02
     20.833  0.2565E+00  0.2394E+02
     20.934  0.1904E+00  0.2396E+02
     21.035  0.1474E+00  0.2398E+02
     21.136  0.9747E-01  0.2399E+02
     21.237  0.7376E-01  0.2399E+02
     21.338  0.4545E-01  0.2400E+02
     21.439  0.1758E-01  0.2400E+02
     21.540  0.2730E-02  0.2400E+02
     21.641  0.3710E-04  0.2400E+02
     21.742  0.1385E-08  0.2400E+02
     21.843  0.2276E-16  0.2400E+02
     21.944  0.0000E+00  0.2400E+02
     22.045  0.0000E+00  0.2400E+02
     22.146  0.0000E+00  0.2400E+02
     22.247  0.0000E+00  0.2400E+02
     22.348  0.0000E+00  0.2400E+02
     22.449  0.0000E+00  0.2400E+02
     22.550  0.0000E+00  0.2400E+02
     22.651  0.0000E+00  0.2400E+02
     22.753  0.0000E+00  0.2400E+02
     22.854  0.0000E+00  0.2400E+02
