   3   3   0   0
  0.4835435E+02  0.3483489E-09  0.3483489E-09  0.1380375E-08  0.5000000E-15
  1.000000000000000E-004
  CAR 
 unknown system                          
      6.29319870    -58.51207343  301     -0.54970621      1.00000000
    -58.512  0.0000E+00  0.0000E+00
    -58.296  0.0000E+00  0.0000E+00
    -58.080  0.0000E+00  0.0000E+00
    -57.864  0.0000E+00  0.0000E+00
    -57.648  0.0000E+00  0.0000E+00
    -57.432  0.0000E+00  0.0000E+00
    -57.216  0.0000E+00  0.0000E+00
    -57.000  0.0000E+00  0.0000E+00
    -56.784  0.0000E+00  0.0000E+00
    -56.568  0.0000E+00  0.0000E+00
    -56.352  0.0000E+00  0.0000E+00
    -56.136  0.0000E+00  0.0000E+00
    -55.920  0.0000E+00  0.0000E+00
    -55.704  0.1057E-03  0.2283E-04
    -55.488  0.8910E+01  0.1925E+01
    -55.272  0.3480E+00  0.2000E+01
    -55.056  0.0000E+00  0.2000E+01
    -54.840  0.0000E+00  0.2000E+01
    -54.624  0.0000E+00  0.2000E+01
    -54.408  0.0000E+00  0.2000E+01
    -54.192  0.0000E+00  0.2000E+01
    -53.976  0.0000E+00  0.2000E+01
    -53.760  0.0000E+00  0.2000E+01
    -53.544  0.0000E+00  0.2000E+01
    -53.328  0.0000E+00  0.2000E+01
    -53.112  0.0000E+00  0.2000E+01
    -52.896  0.0000E+00  0.2000E+01
    -52.680  0.0000E+00  0.2000E+01
    -52.464  0.0000E+00  0.2000E+01
    -52.248  0.0000E+00  0.2000E+01
    -52.032  0.0000E+00  0.2000E+01
    -51.816  0.0000E+00  0.2000E+01
    -51.600  0.0000E+00  0.2000E+01
    -51.383  0.0000E+00  0.2000E+01
    -51.167  0.0000E+00  0.2000E+01
    -50.951  0.0000E+00  0.2000E+01
    -50.735  0.0000E+00  0.2000E+01
    -50.519  0.0000E+00  0.2000E+01
    -50.303  0.0000E+00  0.2000E+01
    -50.087  0.0000E+00  0.2000E+01
    -49.871  0.0000E+00  0.2000E+01
    -49.655  0.0000E+00  0.2000E+01
    -49.439  0.0000E+00  0.2000E+01
    -49.223  0.0000E+00  0.2000E+01
    -49.007  0.0000E+00  0.2000E+01
    -48.791  0.0000E+00  0.2000E+01
    -48.575  0.0000E+00  0.2000E+01
    -48.359  0.0000E+00  0.2000E+01
    -48.143  0.0000E+00  0.2000E+01
    -47.927  0.0000E+00  0.2000E+01
    -47.711  0.0000E+00  0.2000E+01
    -47.495  0.0000E+00  0.2000E+01
    -47.279  0.0000E+00  0.2000E+01
    -47.063  0.0000E+00  0.2000E+01
    -46.847  0.0000E+00  0.2000E+01
    -46.631  0.0000E+00  0.2000E+01
    -46.415  0.0000E+00  0.2000E+01
    -46.199  0.0000E+00  0.2000E+01
    -45.983  0.0000E+00  0.2000E+01
    -45.767  0.0000E+00  0.2000E+01
    -45.551  0.0000E+00  0.2000E+01
    -45.335  0.0000E+00  0.2000E+01
    -45.119  0.0000E+00  0.2000E+01
    -44.903  0.0000E+00  0.2000E+01
    -44.687  0.0000E+00  0.2000E+01
    -44.471  0.0000E+00  0.2000E+01
    -44.255  0.0000E+00  0.2000E+01
    -44.039  0.0000E+00  0.2000E+01
    -43.823  0.0000E+00  0.2000E+01
    -43.607  0.0000E+00  0.2000E+01
    -43.391  0.0000E+00  0.2000E+01
    -43.175  0.0000E+00  0.2000E+01
    -42.959  0.0000E+00  0.2000E+01
    -42.743  0.0000E+00  0.2000E+01
    -42.527  0.0000E+00  0.2000E+01
    -42.311  0.0000E+00  0.2000E+01
    -42.095  0.0000E+00  0.2000E+01
    -41.879  0.0000E+00  0.2000E+01
    -41.663  0.0000E+00  0.2000E+01
    -41.447  0.0000E+00  0.2000E+01
    -41.231  0.0000E+00  0.2000E+01
    -41.015  0.0000E+00  0.2000E+01
    -40.799  0.0000E+00  0.2000E+01
    -40.583  0.0000E+00  0.2000E+01
    -40.367  0.0000E+00  0.2000E+01
    -40.151  0.0000E+00  0.2000E+01
    -39.935  0.0000E+00  0.2000E+01
    -39.719  0.0000E+00  0.2000E+01
    -39.503  0.0000E+00  0.2000E+01
    -39.287  0.0000E+00  0.2000E+01
    -39.070  0.0000E+00  0.2000E+01
    -38.854  0.0000E+00  0.2000E+01
    -38.638  0.0000E+00  0.2000E+01
    -38.422  0.0000E+00  0.2000E+01
    -38.206  0.0000E+00  0.2000E+01
    -37.990  0.0000E+00  0.2000E+01
    -37.774  0.0000E+00  0.2000E+01
    -37.558  0.0000E+00  0.2000E+01
    -37.342  0.0000E+00  0.2000E+01
    -37.126  0.0000E+00  0.2000E+01
    -36.910  0.0000E+00  0.2000E+01
    -36.694  0.0000E+00  0.2000E+01
    -36.478  0.0000E+00  0.2000E+01
    -36.262  0.0000E+00  0.2000E+01
    -36.046  0.0000E+00  0.2000E+01
    -35.830  0.0000E+00  0.2000E+01
    -35.614  0.0000E+00  0.2000E+01
    -35.398  0.0000E+00  0.2000E+01
    -35.182  0.0000E+00  0.2000E+01
    -34.966  0.0000E+00  0.2000E+01
    -34.750  0.0000E+00  0.2000E+01
    -34.534  0.0000E+00  0.2000E+01
    -34.318  0.0000E+00  0.2000E+01
    -34.102  0.0000E+00  0.2000E+01
    -33.886  0.0000E+00  0.2000E+01
    -33.670  0.0000E+00  0.2000E+01
    -33.454  0.0000E+00  0.2000E+01
    -33.238  0.0000E+00  0.2000E+01
    -33.022  0.0000E+00  0.2000E+01
    -32.806  0.0000E+00  0.2000E+01
    -32.590  0.0000E+00  0.2000E+01
    -32.374  0.0000E+00  0.2000E+01
    -32.158  0.0000E+00  0.2000E+01
    -31.942  0.3504E-05  0.2000E+01
    -31.726  0.4749E+01  0.3026E+01
    -31.510  0.2280E+02  0.7950E+01
    -31.294  0.2307E+00  0.8000E+01
    -31.078  0.0000E+00  0.8000E+01
    -30.862  0.0000E+00  0.8000E+01
    -30.646  0.0000E+00  0.8000E+01
    -30.430  0.0000E+00  0.8000E+01
    -30.214  0.0000E+00  0.8000E+01
    -29.998  0.0000E+00  0.8000E+01
    -29.782  0.0000E+00  0.8000E+01
    -29.566  0.0000E+00  0.8000E+01
    -29.350  0.0000E+00  0.8000E+01
    -29.134  0.0000E+00  0.8000E+01
    -28.918  0.0000E+00  0.8000E+01
    -28.702  0.0000E+00  0.8000E+01
    -28.486  0.0000E+00  0.8000E+01
    -28.270  0.0000E+00  0.8000E+01
    -28.054  0.0000E+00  0.8000E+01
    -27.838  0.0000E+00  0.8000E+01
    -27.622  0.0000E+00  0.8000E+01
    -27.406  0.0000E+00  0.8000E+01
    -27.190  0.0000E+00  0.8000E+01
    -26.974  0.0000E+00  0.8000E+01
    -26.757  0.0000E+00  0.8000E+01
    -26.541  0.0000E+00  0.8000E+01
    -26.325  0.0000E+00  0.8000E+01
    -26.109  0.0000E+00  0.8000E+01
    -25.893  0.0000E+00  0.8000E+01
    -25.677  0.0000E+00  0.8000E+01
    -25.461  0.0000E+00  0.8000E+01
    -25.245  0.0000E+00  0.8000E+01
    -25.029  0.0000E+00  0.8000E+01
    -24.813  0.0000E+00  0.8000E+01
    -24.597  0.0000E+00  0.8000E+01
    -24.381  0.0000E+00  0.8000E+01
    -24.165  0.0000E+00  0.8000E+01
    -23.949  0.0000E+00  0.8000E+01
    -23.733  0.0000E+00  0.8000E+01
    -23.517  0.0000E+00  0.8000E+01
    -23.301  0.0000E+00  0.8000E+01
    -23.085  0.0000E+00  0.8000E+01
    -22.869  0.0000E+00  0.8000E+01
    -22.653  0.0000E+00  0.8000E+01
    -22.437  0.0000E+00  0.8000E+01
    -22.221  0.0000E+00  0.8000E+01
    -22.005  0.0000E+00  0.8000E+01
    -21.789  0.0000E+00  0.8000E+01
    -21.573  0.0000E+00  0.8000E+01
    -21.357  0.0000E+00  0.8000E+01
    -21.141  0.0000E+00  0.8000E+01
    -20.925  0.0000E+00  0.8000E+01
    -20.709  0.0000E+00  0.8000E+01
    -20.493  0.0000E+00  0.8000E+01
    -20.277  0.0000E+00  0.8000E+01
    -20.061  0.0000E+00  0.8000E+01
    -19.845  0.0000E+00  0.8000E+01
    -19.629  0.0000E+00  0.8000E+01
    -19.413  0.0000E+00  0.8000E+01
    -19.197  0.0000E+00  0.8000E+01
    -18.981  0.0000E+00  0.8000E+01
    -18.765  0.0000E+00  0.8000E+01
    -18.549  0.0000E+00  0.8000E+01
    -18.333  0.0000E+00  0.8000E+01
    -18.117  0.0000E+00  0.8000E+01
    -17.901  0.0000E+00  0.8000E+01
    -17.685  0.0000E+00  0.8000E+01
    -17.469  0.0000E+00  0.8000E+01
    -17.253  0.0000E+00  0.8000E+01
    -17.037  0.0000E+00  0.8000E+01
    -16.821  0.0000E+00  0.8000E+01
    -16.605  0.0000E+00  0.8000E+01
    -16.389  0.0000E+00  0.8000E+01
    -16.173  0.0000E+00  0.8000E+01
    -15.957  0.0000E+00  0.8000E+01
    -15.741  0.0000E+00  0.8000E+01
    -15.525  0.0000E+00  0.8000E+01
    -15.309  0.0000E+00  0.8000E+01
    -15.093  0.0000E+00  0.8000E+01
    -14.877  0.0000E+00  0.8000E+01
    -14.661  0.0000E+00  0.8000E+01
    -14.444  0.0000E+00  0.8000E+01
    -14.228  0.1254E-07  0.8000E+01
    -14.012  0.1419E+00  0.8031E+01
    -13.796  0.6896E+00  0.8180E+01
    -13.580  0.7662E+00  0.8345E+01
    -13.364  0.8662E+00  0.8532E+01
    -13.148  0.1025E+01  0.8754E+01
    -12.932  0.2385E+01  0.9269E+01
    -12.716  0.4281E+01  0.1019E+02
    -12.500  0.5670E+01  0.1142E+02
    -12.284  0.2692E+01  0.1200E+02
    -12.068  0.2728E-03  0.1200E+02
    -11.852  0.0000E+00  0.1200E+02
    -11.636  0.0000E+00  0.1200E+02
    -11.420  0.0000E+00  0.1200E+02
    -11.204  0.0000E+00  0.1200E+02
    -10.988  0.0000E+00  0.1200E+02
    -10.772  0.0000E+00  0.1200E+02
    -10.556  0.0000E+00  0.1200E+02
    -10.340  0.0000E+00  0.1200E+02
    -10.124  0.0000E+00  0.1200E+02
     -9.908  0.0000E+00  0.1200E+02
     -9.692  0.0000E+00  0.1200E+02
     -9.476  0.0000E+00  0.1200E+02
     -9.260  0.0000E+00  0.1200E+02
     -9.044  0.0000E+00  0.1200E+02
     -8.828  0.0000E+00  0.1200E+02
     -8.612  0.0000E+00  0.1200E+02
     -8.396  0.0000E+00  0.1200E+02
     -8.180  0.0000E+00  0.1200E+02
     -7.964  0.0000E+00  0.1200E+02
     -7.748  0.0000E+00  0.1200E+02
     -7.532  0.0000E+00  0.1200E+02
     -7.316  0.0000E+00  0.1200E+02
     -7.100  0.0000E+00  0.1200E+02
     -6.884  0.0000E+00  0.1200E+02
     -6.668  0.0000E+00  0.1200E+02
     -6.452  0.0000E+00  0.1200E+02
     -6.236  0.0000E+00  0.1200E+02
     -6.020  0.0000E+00  0.1200E+02
     -5.804  0.0000E+00  0.1200E+02
     -5.588  0.2560E-05  0.1200E+02
     -5.372  0.4035E+00  0.1209E+02
     -5.156  0.1536E+01  0.1242E+02
     -4.940  0.1978E+01  0.1285E+02
     -4.724  0.3517E+01  0.1361E+02
     -4.508  0.4128E+01  0.1450E+02
     -4.292  0.1612E+01  0.1485E+02
     -4.076  0.9359E+00  0.1505E+02
     -3.860  0.4349E+01  0.1599E+02
     -3.644  0.4606E+01  0.1698E+02
     -3.428  0.1244E+01  0.1725E+02
     -3.212  0.1117E+01  0.1749E+02
     -2.996  0.3681E+01  0.1829E+02
     -2.780  0.4250E+01  0.1921E+02
     -2.564  0.2136E+01  0.1967E+02
     -2.348  0.1815E+01  0.2006E+02
     -2.131  0.2260E+01  0.2055E+02
     -1.915  0.4009E+01  0.2141E+02
     -1.699  0.5070E+01  0.2251E+02
     -1.483  0.3053E+01  0.2317E+02
     -1.267  0.2659E+01  0.2374E+02
     -1.051  0.1192E+01  0.2400E+02
     -0.835  0.2739E+00  0.2406E+02
     -0.619  0.3325E+01  0.2478E+02
     -0.403  0.2639E+01  0.2535E+02
     -0.187  0.1633E+01  0.2570E+02
      0.029  0.1116E+01  0.2594E+02
      0.245  0.2716E+00  0.2600E+02
      0.461  0.8760E-06  0.2600E+02
      0.677  0.0000E+00  0.2600E+02
      0.893  0.0000E+00  0.2600E+02
      1.109  0.2284E-15  0.2600E+02
      1.325  0.2191E-02  0.2600E+02
      1.541  0.3206E+00  0.2607E+02
      1.757  0.1265E+01  0.2634E+02
      1.973  0.6236E+01  0.2769E+02
      2.189  0.5696E+01  0.2892E+02
      2.405  0.5370E+01  0.3008E+02
      2.621  0.2562E+01  0.3063E+02
      2.837  0.2078E+01  0.3108E+02
      3.053  0.2406E+01  0.3160E+02
      3.269  0.1411E+01  0.3191E+02
      3.485  0.4298E+00  0.3200E+02
      3.701  0.1492E-05  0.3200E+02
      3.917  0.0000E+00  0.3200E+02
      4.133  0.0000E+00  0.3200E+02
      4.349  0.0000E+00  0.3200E+02
      4.565  0.0000E+00  0.3200E+02
      4.781  0.0000E+00  0.3200E+02
      4.997  0.0000E+00  0.3200E+02
      5.213  0.0000E+00  0.3200E+02
      5.429  0.0000E+00  0.3200E+02
      5.645  0.0000E+00  0.3200E+02
      5.861  0.0000E+00  0.3200E+02
      6.077  0.0000E+00  0.3200E+02
      6.293  0.0000E+00  0.3200E+02
