    3    3    1    1
  0.4835435E+02  0.3483489E-09  0.3483489E-09  0.1380375E-08  0.5000000E-15
  1.000000000000000E-004
  CAR 
 unknown system                          
     25    432     16
 
  0.0000000E+00  0.0000000E+00  0.0000000E+00  0.2100399E-03
    1      -55.566307   1.000000
    2      -31.648448   1.000000
    3      -31.550506   1.000000
    4      -31.550493   1.000000
    5      -14.056875   1.000000
    6      -13.080027   1.000000
    7       -5.314218   1.000000
    8       -2.385366   1.000000
    9       -2.385344   1.000000
   10       -1.850296   1.000000
   11       -1.418907   1.000000
   12       -1.418879   1.000000
   13        0.102532   0.000000
   14        2.388113   0.000000
   15        2.388143   0.000000
   16        2.587603   0.000000
 
  0.1449275E-01  0.0000000E+00  0.0000000E+00  0.1260239E-02
    1      -55.566379   1.000000
    2      -31.648514   1.000000
    3      -31.551099   1.000000
    4      -31.550653   1.000000
    5      -14.054575   1.000000
    6      -13.078994   1.000000
    7       -5.311127   1.000000
    8       -2.393512   1.000000
    9       -2.383061   1.000000
   10       -1.864063   1.000000
   11       -1.423901   1.000000
   12       -1.410509   1.000000
   13        0.100583   0.000000
   14        2.380659   0.000000
   15        2.392938   0.000000
   16        2.576536   0.000000
 
  0.2898551E-01  0.0000000E+00  0.0000000E+00  0.1260239E-02
    1      -55.566296   1.000000
    2      -31.648226   1.000000
    3      -31.552608   1.000000
    4      -31.551039   1.000000
    5      -14.047626   1.000000
    6      -13.075881   1.000000
    7       -5.301787   1.000000
    8       -2.417791   1.000000
    9       -2.375997   1.000000
   10       -1.902077   1.000000
   11       -1.438093   1.000000
   12       -1.387550   1.000000
   13        0.095236   0.000000
   14        2.360945   0.000000
   15        2.408359   0.000000
   16        2.544995   0.000000
 
  0.4347826E-01  0.0000000E+00  0.0000000E+00  0.1260239E-02
    1      -55.566119   1.000000
    2      -31.647733   1.000000
    3      -31.555099   1.000000
    4      -31.551608   1.000000
    5      -14.036066   1.000000
    6      -13.070702   1.000000
    7       -5.286248   1.000000
    8       -2.457510   1.000000
    9       -2.364257   1.000000
   10       -1.957693   1.000000
   11       -1.461226   1.000000
   12       -1.357278   1.000000
   13        0.086022   0.000000
   14        2.330638   0.000000
   15        2.433698   0.000000
   16        2.495196   0.000000
 
  0.5797101E-01  0.0000000E+00  0.0000000E+00  0.1260239E-02
    1      -55.565837   1.000000
    2      -31.646979   1.000000
    3      -31.558552   1.000000
    4      -31.552384   1.000000
    5      -14.019949   1.000000
    6      -13.063481   1.000000
    7       -5.264662   1.000000
    8       -2.511754   1.000000
    9       -2.347925   1.000000
   10       -2.025220   1.000000
   11       -1.492676   1.000000
   12       -1.325876   1.000000
   13        0.072889   0.000000
   14        2.292925   0.000000
   15        2.433348   0.000000
   16        2.468429   0.000000
 
  0.7246377E-01  0.0000000E+00  0.0000000E+00  0.1260239E-02
    1      -55.565465   1.000000
    2      -31.646020   1.000000
    3      -31.562907   1.000000
    4      -31.553372   1.000000
    5      -13.999357   1.000000
    6      -13.054260   1.000000
    7       -5.237203   1.000000
    8       -2.579265   1.000000
    9       -2.327128   1.000000
   10       -2.100978   1.000000
   11       -1.531784   1.000000
   12       -1.297650   1.000000
   13        0.055085   0.000000
   14        2.251587   0.000000
   15        2.364881   0.000000
   16        2.511333   0.000000
 
  0.8695652E-01  0.0000000E+00  0.0000000E+00  0.1260239E-02
    1      -55.565042   1.000000
    2      -31.644873   1.000000
    3      -31.568228   1.000000
    4      -31.554562   1.000000
    5      -13.974414   1.000000
    6      -13.043088   1.000000
    7       -5.204170   1.000000
    8       -2.658738   1.000000
    9       -2.302019   1.000000
   10       -2.182795   1.000000
   11       -1.577696   1.000000
   12       -1.275434   1.000000
   13        0.031986   0.000000
   14        2.210477   0.000000
   15        2.293300   0.000000
   16        2.479046   0.000000
 
  0.1014493E+00  0.0000000E+00  0.0000000E+00  0.1260239E-02
    1      -55.564535   1.000000
    2      -31.643534   1.000000
    3      -31.574368   1.000000
    4      -31.555944   1.000000
    5      -13.945243   1.000000
    6      -13.030020   1.000000
    7       -5.165820   1.000000
    8       -2.748482   1.000000
    9       -2.272788   1.000000
   10       -2.269352   1.000000
   11       -1.629490   1.000000
   12       -1.261004   1.000000
   13        0.003003   0.000000
   14        2.173417   0.000000
   15        2.222359   0.000000
   16        2.443745   0.000000
 
  0.1159420E+00  0.0000000E+00  0.0000000E+00  0.1260239E-02
    1      -55.563961   1.000000
    2      -31.642024   1.000000
    3      -31.581302   1.000000
    4      -31.557507   1.000000
    5      -13.911996   1.000000
    6      -13.015126   1.000000
    7       -5.122572   1.000000
    8       -2.846924   1.000000
    9       -2.359890   1.000000
   10       -2.239662   1.000000
   11       -1.686221   1.000000
   12       -1.255453   1.000000
   13       -0.032428   0.000000
   14        2.143589   0.000000
   15        2.154932   0.000000
   16        2.405286   0.000000
 
  0.1304348E+00  0.0000000E+00  0.0000000E+00  0.1260239E-02
    1      -55.563290   1.000000
    2      -31.640332   1.000000
    3      -31.588885   1.000000
    4      -31.559237   1.000000
    5      -13.874835   1.000000
    6      -12.998484   1.000000
    7       -5.074884   1.000000
    8       -2.952378   1.000000
    9       -2.453870   1.000000
   10       -2.202889   1.000000
   11       -1.746952   1.000000
   12       -1.259134   1.000000
   13       -0.074622   0.000000
   14        2.093564   0.000000
   15        2.123663   0.000000
   16        2.364490   0.000000
 
  0.1449275E+00  0.0000000E+00  0.0000000E+00  0.1260239E-02
    1      -55.562573   1.000000
    2      -31.638502   1.000000
    3      -31.597203   1.000000
    4      -31.561072   1.000000
    5      -13.833977   1.000000
    6      -12.980190   1.000000
    7       -5.023409   1.000000
    8       -3.063333   1.000000
    9       -2.551059   1.000000
   10       -2.162749   1.000000
   11       -1.810775   1.000000
   12       -1.271934   1.000000
   13       -0.123684   0.000000
   14        2.039648   0.000000
   15        2.114935   0.000000
   16        2.322221   0.000000
 
  0.1594203E+00  0.0000000E+00  0.0000000E+00  0.1260239E-02
    1      -55.561852   1.000000
    2      -31.636556   1.000000
    3      -31.606159   1.000000
    4      -31.563137   1.000000
    5      -13.789675   1.000000
    6      -12.960359   1.000000
    7       -4.968993   1.000000
    8       -3.178175   1.000000
    9       -2.651213   1.000000
   10       -2.119712   1.000000
   11       -1.876897   1.000000
   12       -1.293162   1.000000
   13       -0.179378   0.000000
   14        1.994578   0.000000
   15        2.118500   0.000000
   16        2.279028   0.000000
 
  0.1739130E+00  0.0000000E+00  0.0000000E+00  0.1260239E-02
    1      -55.561072   1.000000
    2      -31.634471   1.000000
    3      -31.615657   1.000000
    4      -31.565271   1.000000
    5      -13.742151   1.000000
    6      -12.939092   1.000000
    7       -4.912517   1.000000
    8       -3.295288   1.000000
    9       -2.754028   1.000000
   10       -2.074031   1.000000
   11       -1.944453   1.000000
   12       -1.321689   1.000000
   13       -0.240988   0.000000
   14        1.959072   0.000000
   15        2.134541   0.000000
   16        2.235835   0.000000
 
  0.1884058E+00  0.0000000E+00  0.0000000E+00  0.1260239E-02
    1      -55.560277   1.000000
    2      -31.632292   1.000000
    3      -31.625620   1.000000
    4      -31.567540   1.000000
    5      -13.691705   1.000000
    6      -12.916531   1.000000
    7       -4.855205   1.000000
    8       -3.412820   1.000000
    9       -2.859289   1.000000
   10       -2.026231   1.000000
   11       -2.012815   1.000000
   12       -1.356144   1.000000
   13       -0.307327   0.000000
   14        1.933302   0.000000
   15        2.162427   0.000000
   16        2.193201   0.000000
 
  0.2028986E+00  0.0000000E+00  0.0000000E+00  0.1260239E-02
    1      -55.559457   1.000000
    2      -31.635900   1.000000
    3      -31.630059   1.000000
    4      -31.569905   1.000000
    5      -13.638624   1.000000
    6      -12.892810   1.000000
    7       -4.798670   1.000000
    8       -3.528806   1.000000
    9       -2.966672   1.000000
   10       -2.081334   1.000000
   11       -1.976703   1.000000
   12       -1.394988   1.000000
   13       -0.376898   0.000001
   14        1.917324   0.000000
   15        2.151889   0.000000
   16        2.201179   0.000000
 
  0.2173913E+00  0.0000000E+00  0.0000000E+00  0.1260239E-02
    1      -55.558606   1.000000
    2      -31.646459   1.000000
    3      -31.627723   1.000000
    4      -31.572338   1.000000
    5      -13.583274   1.000000
    6      -12.868094   1.000000
    7       -4.745153   1.000000
    8       -3.640947   1.000000
    9       -3.075713   1.000000
   10       -2.149367   1.000000
   11       -1.925882   1.000000
   12       -1.436690   1.000000
   13       -0.447958   0.002002
   14        1.910390   0.000000
   15        2.112570   0.000000
   16        2.249777   0.000000
 
  0.2318841E+00  0.0000000E+00  0.0000000E+00  0.1260239E-02
    1      -55.557713   1.000000
    2      -31.657117   1.000000
    3      -31.625385   1.000000
    4      -31.574748   1.000000
    5      -13.525952   1.000000
    6      -12.842549   1.000000
    7       -4.697684   1.000000
    8       -3.746157   1.000000
    9       -3.185876   1.000000
   10       -2.216504   1.000000
   11       -1.874038   1.000000
   12       -1.479833   1.000000
   13       -0.518643   0.189807
   14        1.911551   0.000000
   15        2.076263   0.000000
   16        2.306701   0.000000
 
  0.2463768E+00  0.0000000E+00  0.0000000E+00  0.1260239E-02
    1      -55.556786   1.000000
    2      -31.667827   1.000000
    3      -31.622974   1.000000
    4      -31.577201   1.000000
    5      -13.467092   1.000000
    6      -12.816354   1.000000
    7       -4.660764   1.000000
    8       -3.840131   1.000000
    9       -3.296542   1.000000
   10       -2.282100   1.000000
   11       -1.821893   1.000000
   12       -1.523169   1.000000
   13       -0.586933   0.853814
   14        1.920218   0.000000
   15        2.043004   0.000000
   16        2.370609   0.000000
 
  0.2608696E+00  0.0000000E+00  0.0000000E+00  0.1260239E-02
    1      -55.555902   1.000000
    2      -31.678635   1.000000
    3      -31.620572   1.000000
    4      -31.579688   1.000000
    5      -13.407130   1.000000
    6      -12.789714   1.000000
    7       -4.640265   1.000000
    8       -3.917349   1.000000
    9       -3.407059   1.000000
   10       -2.345846   1.000000
   11       -1.770040   1.000000
   12       -1.565687   1.000000
   13       -0.651018   0.997918
   14        1.935052   0.000000
   15        2.013014   0.000000
   16        2.439525   0.000000
 
  0.2753623E+00  0.0000000E+00  0.0000000E+00  0.1260239E-02
    1      -55.555033   1.000000
    2      -31.689368   1.000000
    3      -31.618213   1.000000
    4      -31.582144   1.000000
    5      -13.346522   1.000000
    6      -12.762838   1.000000
    7       -4.642397   1.000000
    8       -3.971905   1.000000
    9       -3.516679   1.000000
   10       -2.407360   1.000000
   11       -1.718859   1.000000
   12       -1.606563   1.000000
   13       -0.709204   0.999997
   14        1.955023   0.000000
   15        1.987018   0.000000
   16        2.512096   0.000000
 
  0.2898551E+00  0.0000000E+00  0.0000000E+00  0.1260239E-02
    1      -55.554121   1.000000
    2      -31.699855   1.000000
    3      -31.615796   1.000000
    4      -31.584550   1.000000
    5      -13.285687   1.000000
    6      -12.735953   1.000000
    7       -4.670434   1.000000
    8       -4.000690   1.000000
    9       -3.624499   1.000000
   10       -2.466285   1.000000
   11       -1.668842   1.000000
   12       -1.645223   1.000000
   13       -0.759502   1.000000
   14        1.965251   0.000000
   15        1.979790   0.000000
   16        2.587022   0.000000
 
  0.3043478E+00  0.0000000E+00  0.0000000E+00  0.1260239E-02
    1      -55.553249   1.000000
    2      -31.710066   1.000000
    3      -31.613496   1.000000
    4      -31.586918   1.000000
    5      -13.225191   1.000000
    6      -12.709284   1.000000
    7       -4.721777   1.000000
    8       -4.006784   1.000000
    9       -3.729731   1.000000
   10       -2.522378   1.000000
   11       -1.681243   1.000000
   12       -1.620565   1.000000
   13       -0.801012   1.000000
   14        1.947555   0.000000
   15        2.007960   0.000000
   16        2.662764   0.000000
 
  0.3188406E+00  0.0000000E+00  0.0000000E+00  0.1260239E-02
    1      -55.552387   1.000000
    2      -31.719925   1.000000
    3      -31.611302   1.000000
    4      -31.589119   1.000000
    5      -13.165529   1.000000
    6      -12.683065   1.000000
    7       -4.789440   1.000000
    8       -3.997199   1.000000
    9       -3.831571   1.000000
   10       -2.575357   1.000000
   11       -1.714417   1.000000
   12       -1.574331   1.000000
   13       -0.832606   1.000000
   14        1.934717   0.000000
   15        2.038910   0.000000
   16        2.737592   0.000000
 
  0.3333333E+00  0.0000000E+00  0.0000000E+00  0.1260239E-02
    1      -55.551584   1.000000
    2      -31.729404   1.000000
    3      -31.609142   1.000000
    4      -31.591296   1.000000
    5      -13.107295   1.000000
    6      -12.657550   1.000000
    7       -4.866170   1.000000
    8       -3.979379   1.000000
    9       -3.929180   1.000000
   10       -2.625017   1.000000
   11       -1.744562   1.000000
   12       -1.530793   1.000000
   13       -0.853827   1.000000
   14        1.925365   0.000000
   15        2.071807   0.000000
   16        2.810663   0.000000
 
  0.3478261E+00  0.0000000E+00  0.0000000E+00  0.1260239E-02
    1      -55.550820   1.000000
    2      -31.738369   1.000000
    3      -31.607108   1.000000
    4      -31.593362   1.000000
    5      -13.051019   1.000000
    6      -12.632987   1.000000
    7       -4.946362   1.000000
    8       -4.021714   1.000000
    9       -3.958528   1.000000
   10       -2.671168   1.000000
   11       -1.771695   1.000000
   12       -1.490140   1.000000
   13       -0.864710   1.000000
   14        1.919976   0.000000
   15        2.105834   0.000000
   16        2.880586   0.000000
 
  0.3623188E+00  0.0000000E+00  0.0000000E+00  0.1260239E-02
    1      -55.550104   1.000000
    2      -31.746755   1.000000
    3      -31.605209   1.000000
    4      -31.595301   1.000000
    5      -12.997322   1.000000
    6      -12.609628   1.000000
    7       -5.026159   1.000000
    8       -4.108465   1.000000
    9       -3.938055   1.000000
   10       -2.713648   1.000000
   11       -1.795802   1.000000
   12       -1.452713   1.000000
   13       -0.865771   1.000000
   14        1.918357   0.000000
   15        2.140402   0.000000
   16        2.946364   0.000000
 
  0.3768116E+00  0.0000000E+00  0.0000000E+00  0.1260239E-02
    1      -55.549440   1.000000
    2      -31.754542   1.000000
    3      -31.603432   1.000000
    4      -31.597072   1.000000
    5      -12.946793   1.000000
    6      -12.587732   1.000000
    7       -5.102893   1.000000
    8       -4.188678   1.000000
    9       -3.919771   1.000000
   10       -2.752210   1.000000
   11       -1.817006   1.000000
   12       -1.418776   1.000000
   13       -0.858049   1.000000
   14        1.919198   0.000000
   15        2.174666   0.000000
   16        3.007266   0.000000
 
  0.3913043E+00  0.0000000E+00  0.0000000E+00  0.1260239E-02
    1      -55.548870   1.000000
    2      -31.761732   1.000000
    3      -31.601830   1.000000
    4      -31.598671   1.000000
    5      -12.900036   1.000000
    6      -12.567542   1.000000
    7       -5.174729   1.000000
    8       -4.261717   1.000000
    9       -3.904564   1.000000
   10       -2.786840   1.000000
   11       -1.835404   1.000000
   12       -1.388425   1.000000
   13       -0.843150   1.000000
   14        1.922825   0.000000
   15        2.207437   0.000000
   16        3.062414   0.000000
 
  0.4057971E+00  0.0000000E+00  0.0000000E+00  0.1260239E-02
    1      -55.548353   1.000000
    2      -31.768112   1.000000
    3      -31.600402   1.000000
    4      -31.600107   1.000000
    5      -12.857590   1.000000
    6      -12.549285   1.000000
    7       -5.240225   1.000000
    8       -4.327002   1.000000
    9       -3.892592   1.000000
   10       -2.817367   1.000000
   11       -1.851117   1.000000
   12       -1.361816   1.000000
   13       -0.822958   1.000000
   14        1.928169   0.000000
   15        2.238810   0.000000
   16        3.111221   0.000000
 
  0.4202899E+00  0.0000000E+00  0.0000000E+00  0.1260239E-02
    1      -55.547884   1.000000
    2      -31.773527   1.000000
    3      -31.601385   1.000000
    4      -31.599211   1.000000
    5      -12.820012   1.000000
    6      -12.533177   1.000000
    7       -5.298292   1.000000
    8       -4.383992   1.000000
    9       -3.883656   1.000000
   10       -2.843751   1.000000
   11       -1.864271   1.000000
   12       -1.339017   1.000000
   13       -0.799579   1.000000
   14        1.934487   0.000000
   15        2.268636   0.000000
   16        3.153347   0.000000
 
  0.4347826E+00  0.0000000E+00  0.0000000E+00  0.1260239E-02
    1      -55.547508   1.000000
    2      -31.778233   1.000000
    3      -31.602462   1.000000
    4      -31.598148   1.000000
    5      -12.787828   1.000000
    6      -12.519427   1.000000
    7       -5.347981   1.000000
    8       -4.432186   1.000000
    9       -3.877334   1.000000
   10       -2.865819   1.000000
   11       -1.875002   1.000000
   12       -1.320072   1.000000
   13       -0.775422   1.000000
   14        1.940974   0.000000
   15        2.294605   0.000000
   16        3.188588   0.000000
 
  0.4492754E+00  0.0000000E+00  0.0000000E+00  0.1260239E-02
    1      -55.547163   1.000000
    2      -31.781954   1.000000
    3      -31.603304   1.000000
    4      -31.597278   1.000000
    5      -12.761488   1.000000
    6      -12.508204   1.000000
    7       -5.388575   1.000000
    8       -4.471208   1.000000
    9       -3.873095   1.000000
   10       -2.883533   1.000000
   11       -1.883414   1.000000
   12       -1.304936   1.000000
   13       -0.752672   1.000000
   14        1.947539   0.000000
   15        2.317139   0.000000
   16        3.216879   0.000000
 
  0.4637681E+00  0.0000000E+00  0.0000000E+00  0.1260239E-02
    1      -55.546930   1.000000
    2      -31.784811   1.000000
    3      -31.603990   1.000000
    4      -31.596621   1.000000
    5      -12.741376   1.000000
    6      -12.499654   1.000000
    7       -5.419544   1.000000
    8       -4.500764   1.000000
    9       -3.870434   1.000000
   10       -2.896887   1.000000
   11       -1.889612   1.000000
   12       -1.293656   1.000000
   13       -0.733502   1.000000
   14        1.952373   0.000000
   15        2.334876   0.000000
   16        3.238053   0.000000
 
  0.4782609E+00  0.0000000E+00  0.0000000E+00  0.1260239E-02
    1      -55.546788   1.000000
    2      -31.786738   1.000000
    3      -31.604459   1.000000
    4      -31.596210   1.000000
    5      -12.727796   1.000000
    6      -12.493893   1.000000
    7       -5.440449   1.000000
    8       -4.520617   1.000000
    9       -3.868930   1.000000
   10       -2.905843   1.000000
   11       -1.893724   1.000000
   12       -1.286147   1.000000
   13       -0.719695   0.999999
   14        1.956004   0.000000
   15        2.347234   0.000000
   16        3.252043   0.000000
 
  0.4927536E+00  0.0000000E+00  0.0000000E+00  0.1260239E-02
    1      -55.546707   1.000000
    2      -31.787709   1.000000
    3      -31.604689   1.000000
    4      -31.595966   1.000000
    5      -12.720951   1.000000
    6      -12.490997   1.000000
    7       -5.450956   1.000000
    8       -4.530568   1.000000
    9       -3.868251   1.000000
   10       -2.910312   1.000000
   11       -1.895730   1.000000
   12       -1.282407   1.000000
   13       -0.712427   0.999998
   14        1.957775   0.000000
   15        2.353344   0.000000
   16        3.259116   0.000000
 
  0.1449275E-01  0.1449275E-01  0.0000000E+00  0.1260239E-02
    1      -55.566372   1.000000
    2      -31.648378   1.000000
    3      -31.552111   1.000000
    4      -31.550993   1.000000
    5      -14.049954   1.000000
    6      -13.076924   1.000000
    7       -5.304935   1.000000
    8       -2.409765   1.000000
    9       -2.378406   1.000000
   10       -1.889876   1.000000
   11       -1.433682   1.000000
   12       -1.394607   1.000000
   13        0.096866   0.000000
   14        2.367264   0.000000
   15        2.403066   0.000000
   16        2.559758   0.000000
 
  0.2898551E-01  0.1449275E-01  0.0000000E+00  0.2520479E-02
    1      -55.566188   1.000000
    2      -31.647928   1.000000
    3      -31.554102   1.000000
    4      -31.551381   1.000000
    5      -14.040682   1.000000
    6      -13.072768   1.000000
    7       -5.292446   1.000000
    8       -2.441703   1.000000
    9       -2.368966   1.000000
   10       -1.936314   1.000000
   11       -1.452617   1.000000
   12       -1.367868   1.000000
   13        0.089769   0.000000
   14        2.342203   0.000000
   15        2.423799   0.000000
   16        2.514923   0.000000
 
  0.4347826E-01  0.1449275E-01  0.0000000E+00  0.2520479E-02
    1      -55.565946   1.000000
    2      -31.647279   1.000000
    3      -31.557069   1.000000
    4      -31.552052   1.000000
    5      -14.026840   1.000000
    6      -13.066566   1.000000
    7       -5.273881   1.000000
    8       -2.488637   1.000000
    9       -2.354967   1.000000
   10       -1.997243   1.000000
   11       -1.480526   1.000000
   12       -1.336974   1.000000
   13        0.078715   0.000000
   14        2.308035   0.000000
   15        2.454094   0.000000
   16        2.458800   0.000000
 
  0.5797101E-01  0.1449275E-01  0.0000000E+00  0.2520479E-02
    1      -55.565636   1.000000
    2      -31.646436   1.000000
    3      -31.560987   1.000000
    4      -31.552958   1.000000
    5      -14.008492   1.000000
    6      -13.058350   1.000000
    7       -5.249374   1.000000
    8       -2.549478   1.000000
    9       -2.336468   1.000000
   10       -2.068126   1.000000
   11       -1.516690   1.000000
   12       -1.307049   1.000000
   13        0.063170   0.000000
   14        2.268262   0.000000
   15        2.394197   0.000000
   16        2.493471   0.000000
 
  0.7246377E-01  0.1449275E-01  0.0000000E+00  0.2520479E-02
    1      -55.565250   1.000000
    2      -31.645407   1.000000
    3      -31.565818   1.000000
    4      -31.554067   1.000000
    5      -13.985724   1.000000
    6      -13.048154   1.000000
    7       -5.219128   1.000000
    8       -2.622899   1.000000
    9       -2.313586   1.000000
   10       -2.146120   1.000000
   11       -1.560240   1.000000
   12       -1.281571   1.000000
   13        0.042675   0.000000
   14        2.226794   0.000000
   15        2.324549   0.000000
   16        2.492763   0.000000
 
  0.8695652E-01  0.1449275E-01  0.0000000E+00  0.2520479E-02
    1      -55.564780   1.000000
    2      -31.644162   1.000000
    3      -31.571525   1.000000
    4      -31.555360   1.000000
    5      -13.958666   1.000000
    6      -13.036032   1.000000
    7       -5.183416   1.000000
    8       -2.707379   1.000000
    9       -2.286508   1.000000
   10       -2.229522   1.000000
   11       -1.610178   1.000000
   12       -1.262847   1.000000
   13        0.016634   0.000000
   14        2.187477   0.000000
   15        2.253687   0.000000
   16        2.459244   0.000000
 
  0.1014493E+00  0.1449275E-01  0.0000000E+00  0.2520479E-02
    1      -55.564251   1.000000
    2      -31.642754   1.000000
    3      -31.578073   1.000000
    4      -31.556841   1.000000
    5      -13.927458   1.000000
    6      -13.022053   1.000000
    7       -5.142606   1.000000
    8       -2.801360   1.000000
    9       -2.317353   1.000000
   10       -2.255444   1.000000
   11       -1.665579   1.000000
   12       -1.252369   1.000000
   13       -0.015610   0.000000
   14        2.153684   0.000000
   15        2.184796   0.000000
   16        2.422290   0.000000
 
  0.1159420E+00  0.1449275E-01  0.0000000E+00  0.2520479E-02
    1      -55.563599   1.000000
    2      -31.641133   1.000000
    3      -31.585274   1.000000
    4      -31.558474   1.000000
    5      -13.892242   1.000000
    6      -13.006281   1.000000
    7       -5.097085   1.000000
    8       -2.903120   1.000000
    9       -2.408880   1.000000
   10       -2.220608   1.000000
   11       -1.725442   1.000000
   12       -1.250837   1.000000
   13       -0.054406   0.000000
   14        2.120768   0.000000
   15        2.128701   0.000000
   16        2.382707   0.000000
 
  0.1304348E+00  0.1449275E-01  0.0000000E+00  0.2520479E-02
    1      -55.562935   1.000000
    2      -31.639381   1.000000
    3      -31.593253   1.000000
    4      -31.560312   1.000000
    5      -13.853242   1.000000
    6      -12.988813   1.000000
    7       -5.047511   1.000000
    8       -3.011208   1.000000
    9       -2.503848   1.000000
   10       -2.182386   1.000000
   11       -1.788825   1.000000
   12       -1.258498   1.000000
   13       -0.100092   0.000000
   14        2.063239   0.000000
   15        2.114113   0.000000
   16        2.341110   0.000000
 
  0.1449275E+00  0.1449275E-01  0.0000000E+00  0.2520479E-02
    1      -55.562216   1.000000
    2      -31.637490   1.000000
    3      -31.601883   1.000000
    4      -31.562272   1.000000
    5      -13.810664   1.000000
    6      -12.969749   1.000000
    7       -4.994500   1.000000
    8       -3.123938   1.000000
    9       -2.601971   1.000000
   10       -2.140997   1.000000
   11       -1.854776   1.000000
   12       -1.274958   1.000000
   13       -0.152507   0.000000
   14        2.013850   0.000000
   15        2.111345   0.000000
   16        2.298489   0.000000
 
  0.1594203E+00  0.1449275E-01  0.0000000E+00  0.2520479E-02
    1      -55.561435   1.000000
    2      -31.635462   1.000000
    3      -31.611065   1.000000
    4      -31.564332   1.000000
    5      -13.764736   1.000000
    6      -12.949194   1.000000
    7       -4.938929   1.000000
    8       -3.239702   1.000000
    9       -2.702989   1.000000
   10       -2.096846   1.000000
   11       -1.922423   1.000000
   12       -1.299348   1.000000
   13       -0.211173   0.000000
   14        1.973669   0.000000
   15        2.121050   0.000000
   16        2.255613   0.000000
 
  0.1739130E+00  0.1449275E-01  0.0000000E+00  0.2520479E-02
    1      -55.560678   1.000000
    2      -31.633346   1.000000
    3      -31.620824   1.000000
    4      -31.566583   1.000000
    5      -13.715755   1.000000
    6      -12.927280   1.000000
    7       -4.881947   1.000000
    8       -3.356917   1.000000
    9       -2.806710   1.000000
   10       -2.050467   1.000000
   11       -1.991046   1.000000
   12       -1.330467   1.000000
   13       -0.275213   0.000000
   14        1.942820   0.000000
   15        2.142781   0.000000
   16        2.212991   0.000000
 
  0.1884058E+00  0.1449275E-01  0.0000000E+00  0.2520479E-02
    1      -55.559841   1.000000
    2      -31.631117   1.000000
    3      -31.630897   1.000000
    4      -31.568884   1.000000
    5      -13.663984   1.000000
    6      -12.904131   1.000000
    7       -4.824826   1.000000
    8       -3.473525   1.000000
    9       -2.912774   1.000000
   10       -2.059858   1.000000
   11       -2.002135   1.000000
   12       -1.366870   1.000000
   13       -0.343166   0.000000
   14        1.921745   0.000000
   15        2.171694   0.000000
   16        2.176124   0.000000
 
  0.2028986E+00  0.1449275E-01  0.0000000E+00  0.2520479E-02
    1      -55.559021   1.000000
    2      -31.641294   1.000000
    3      -31.628866   1.000000
    4      -31.571314   1.000000
    5      -13.609757   1.000000
    6      -12.879910   1.000000
    7       -4.769536   1.000000
    8       -3.587552   1.000000
    9       -3.020869   1.000000
   10       -2.128399   1.000000
   11       -1.952398   1.000000
   12       -1.407046   1.000000
   13       -0.413483   0.000058
   14        1.909762   0.000000
   15        2.132190   0.000000
   16        2.219689   0.000000
 
  0.2173913E+00  0.1449275E-01  0.0000000E+00  0.2520479E-02
    1      -55.558139   1.000000
    2      -31.651914   1.000000
    3      -31.626504   1.000000
    4      -31.573716   1.000000
    5      -13.553413   1.000000
    6      -12.854772   1.000000
    7       -4.718641   1.000000
    8       -3.696312   1.000000
    9       -3.130436   1.000000
   10       -2.195837   1.000000
   11       -1.901606   1.000000
   12       -1.449523   1.000000
   13       -0.484301   0.032162
   14        1.905886   0.000000
   15        2.095581   0.000000
   16        2.272477   0.000000
 
  0.2318841E+00  0.1449275E-01  0.0000000E+00  0.2520479E-02
    1      -55.557217   1.000000
    2      -31.662570   1.000000
    3      -31.624102   1.000000
    4      -31.576173   1.000000
    5      -13.495319   1.000000