    2    2    1    1
  0.2258959E+02  0.3997770E-09  0.3997770E-09  0.3997770E-09  0.5000000E-15
  1.000000000000000E-004
  CAR 
 unknown system                          
     18    120     72
 
  0.0000000E+00  0.0000000E+00  0.0000000E+00  0.2962963E-03
      1        -14.662424   1.000000
      2        -14.662424   1.000000
      3        -14.662422   1.000000
      4        -14.581455   1.000000
      5        -14.581455   1.000000
      6        -11.258882   1.000000
      7          2.678091   1.000000
      8          2.678091   1.000000
      9          2.678106   1.000000
     10          4.157229   0.000000
     11          7.211645   0.000000
     12          7.211647   0.000000
     13          7.211731   0.000000
     14         11.272882   0.000000
     15         13.731701   0.000000
     16         13.731701   0.000000
     17         15.238246   0.000000
     18         15.238249   0.000000
     19         15.238249   0.000000
     20         18.121375   0.000000
     21         29.677216   0.000000
     22         29.677216   0.000000
     23         29.677244   0.000000
     24         30.502170   0.000000
     25         30.502185   0.000000
     26         30.502186   0.000000
     27         31.137665   0.000000
     28         31.137771   0.000000
     29         31.137772   0.000000
     30         31.659393   0.000000
     31         31.659393   0.000000
     32         39.121142   0.000000
     33         42.823041   0.000000
     34         42.823043   0.000000
     35         43.407613   0.000000
     36         43.407630   0.000000
     37         43.407630   0.000000
     38         44.657946   0.000000
     39         44.669392   0.000000
     40         44.669393   0.000000
     41         44.669397   0.000000
     42         45.391365   0.000000
     43         45.391366   0.000000
     44         45.391378   0.000000
     45         45.871645   0.000000
     46         45.871754   0.000000
     47         45.871754   0.000000
     48         46.771811   0.000000
     49         46.771862   0.000000
     50         46.771863   0.000000
     51         47.273649   0.000000
     52         47.273649   0.000000
     53         47.273653   0.000000
     54         48.915803   0.000000
     55         48.915804   0.000000
     56         50.479894   0.000000
     57         53.068854   0.000000
     58         53.068860   0.000000
     59         53.068860   0.000000
     60         53.509645   0.000000
     61         53.509695   0.000000
     62         53.509695   0.000000
     63         55.595821   0.000000
     64         58.987965   0.000000
     65         68.237080   0.000000
     66         68.237081   0.000000
     67         68.927622   0.000000
     68         68.927656   0.000000
     69         68.927657   0.000000
     70         71.332364   0.000000
     71         73.797981   0.000000
     72         73.797981   0.000000
 
  0.6666667E-01 -0.8112560E-15  0.7109978E-14  0.2370370E-02
      1        -14.664367   1.000000
      2        -14.661671   1.000000
      3        -14.661668   1.000000
      4        -14.581865   1.000000
      5        -14.581864   1.000000
      6        -11.201537   1.000000
      7          1.881320   1.000000
      8          2.603699   1.000000
      9          2.603715   1.000000
     10          4.723864   0.000000
     11          7.295495   0.000000
     12          7.323958   0.000000
     13          7.324030   0.000000
     14         11.592946   0.000000
     15         13.321697   0.000000
     16         13.321698   0.000000
     17         14.935806   0.000000
     18         15.845836   0.000000
     19         15.845838   0.000000
     20         18.622929   0.000000
     21         28.217885   0.000000
     22         28.351528   0.000000
     23         28.351562   0.000000
     24         30.372584   0.000000
     25         30.372598   0.000000
     26         31.032451   0.000000
     27         31.032474   0.000000
     28         31.186150   0.000000
     29         31.748169   0.000000
     30         33.392806   0.000000
     31         33.392840   0.000000
     32         39.245550   0.000000
     33         41.558607   0.000000
     34         41.558611   0.000000
     35         41.936048   0.000000
     36         42.808115   0.000000
     37         42.808121   0.000000
     38         43.814600   0.000000
     39         44.167869   0.000000
     40         44.167908   0.000000
     41         44.682513   0.000000
     42         44.987334   0.000000
     43         45.359970   0.000000
     44         45.359977   0.000000
     45         46.131771   0.000000
     46         46.131788   0.000000
     47         46.359350   0.000000
     48         46.904080   0.000000
     49         46.904104   0.000000
     50         47.369851   0.000000
     51         48.215176   0.000000
     52         48.215197   0.000000
     53         48.598516   0.000000
     54         49.930596   0.000000
     55         50.260672   0.000000
     56         50.260691   0.000000
     57         51.581471   0.000000
     58         52.289586   0.000000
     59         52.289610   0.000000
     60         54.636598   0.000000
     61         54.636624   0.000000
     62         54.758543   0.000000
     63         56.982369   0.000000
     64         59.574068   0.000000
     65         66.428631   0.000000
     66         66.428641   0.000000
     67         67.507231   0.000000
     68         70.426211   0.000000
     69         70.426250   0.000000
     70         72.329053   0.000000
     71         72.329284   0.000000
     72         72.629696   0.000000
 
  0.1333333E+00  0.1249092E-15  0.7094914E-14  0.2370370E-02
      1        -14.671060   1.000000
      2        -14.659006   1.000000
      3        -14.659001   1.000000
      4        -14.581986   1.000000
      5        -14.581983   1.000000
      6        -11.036950   1.000000
      7          0.596851   1.000000
      8          2.405712   1.000000
      9          2.405732   1.000000
     10          5.154623   0.000000
     11          7.617175   0.000000
     12          7.617240   0.000000
     13          7.781375   0.000000
     14         12.345930   0.000000
     15         12.779056   0.000000
     16         12.779057   0.000000
     17         14.491737   0.000000
     18         17.012991   0.000000
     19         17.012992   0.000000
     20         19.770076   0.000000
     21         26.287873   0.000000
     22         26.287909   0.000000
     23         26.338187   0.000000
     24         30.501477   0.000000
     25         30.501493   0.000000
     26         31.143577   0.000000
     27         31.143595   0.000000
     28         31.329555   0.000000
     29         32.959830   0.000000
     30         35.670928   0.000000
     31         35.670956   0.000000
     32         38.633338   0.000000
     33         39.448203   0.000000
     34         39.448217   0.000000
     35         40.725401   0.000000
     36         41.637973   0.000000
     37         41.637973   0.000000
     38         42.684544   0.000000
     39         42.684575   0.000000
     40         43.013410   0.000000
     41         43.131068   0.000000
     42         44.812663   0.000000
     43         45.171265   0.000000
     44         45.171279   0.000000
     45         46.123616   0.000000
     46         46.573997   0.000000
     47         46.574032   0.000000
     48         47.778009   0.000000
     49         48.351092   0.000000
     50         48.351112   0.000000
     51         49.499255   0.000000
     52         49.499275   0.000000
     53         49.514639   0.000000
     54         50.562771   0.000000
     55         51.611262   0.000000
     56         51.611268   0.000000
     57         52.313738   0.000000
     58         53.115920   0.000000
     59         53.115929   0.000000
     60         55.504344   0.000000
     61         56.200641   0.000000
     62         56.200665   0.000000
     63         59.031970   0.000000
     64         61.694819   0.000000
     65         64.363889   0.000000
     66         64.363898   0.000000
     67         65.445437   0.000000
     68         68.921610   0.000000
     69         68.921695   0.000000
     70         71.756534   0.000000
     71         73.059768   0.000000
     72         73.059963   0.000000
 
  0.2000000E+00 -0.7045772E-15 -0.4079674E-18  0.2370370E-02
      1        -14.681387   1.000000
      2        -14.655058   1.000000
      3        -14.655049   1.000000
      4        -14.581610   1.000000
      5        -14.581603   1.000000
      6        -10.768346   1.000000
      7         -0.758966   1.000000
      8          2.145994   1.000000
      9          2.146019   1.000000
     10          5.114905   0.000000
     11          7.953220   0.000000
     12          7.953276   0.000000
     13          8.764738   0.000000
     14         12.518128   0.000000
     15         12.518132   0.000000
     16         12.755561   0.000000
     17         14.818883   0.000000
     18         18.401775   0.000000
     19         18.401777   0.000000
     20         21.224200   0.000000
     21         24.249476   0.000000
     22         24.249512   0.000000
     23         24.463231   0.000000
     24         30.741581   0.000000
     25         30.741595   0.000000
     26         31.336641   0.000000
     27         31.336659   0.000000
     28         31.560056   0.000000
     29         33.602707   0.000000
     30         36.548367   0.000000
     31         36.548368   0.000000
     32         36.648453   0.000000
     33         38.541037   0.000000
     34         38.541069   0.000000
     35         40.484108   0.000000
     36         40.484118   0.000000
     37         40.727254   0.000000
     38         41.350539   0.000000
     39         41.350571   0.000000
     40         41.693285   0.000000
     41         41.962004   0.000000
     42         44.410979   0.000000
     43         44.955342   0.000000
     44         44.955353   0.000000
     45         45.431213   0.000000
     46         46.816987   0.000000
     47         46.817018   0.000000
     48         47.230384   0.000000
     49         49.876506   0.000000
     50         49.876515   0.000000
     51         50.481845   0.000000
     52         50.481869   0.000000
     53         51.035008   0.000000
     54         52.553638   0.000000
     55         52.553648   0.000000
     56         52.698078   0.000000
     57         53.684167   0.000000
     58         55.920950   0.000000
     59         55.920970   0.000000
     60         56.754976   0.000000
     61         58.033410   0.000000
     62         58.033430   0.000000
     63         60.661245   0.000000
     64         62.394023   0.000000
     65         62.394029   0.000000
     66         63.334644   0.000000
     67         65.018306   0.000000
     68         66.086653   0.000000
     69         66.086754   0.000000
     70         69.976164   0.000000
     71         72.494104   0.000000
     72         72.494231   0.000000
 
  0.2666667E+00  0.2924687E-15  0.3309443E-17  0.2370370E-02
      1        -14.691931   1.000000
      2        -14.651325   1.000000
      3        -14.651312   1.000000
      4        -14.581570   1.000000
      5        -14.581559   1.000000
      6        -10.411738   1.000000
      7         -2.018781   1.000000
      8          1.892617   1.000000
      9          1.892646   1.000000
     10          4.911524   0.000000
     11          8.164362   0.000000
     12          8.164404   0.000000
     13          9.932559   0.000000
     14         12.530050   0.000000
     15         12.685059   0.000000
     16         12.685071   0.000000
     17         16.123185   0.000000
     18         19.922257   0.000000
     19         19.922261   0.000000
     20         22.327886   0.000000
     21         22.327921   0.000000
     22         22.475454   0.000000
     23         23.124923   0.000000
     24         31.048978   0.000000
     25         31.048990   0.000000
     26         31.571846   0.000000
     27         31.571867   0.000000
     28         31.859471   0.000000
     29         32.782910   0.000000
     30         34.437916   0.000000
     31         34.437920   0.000000
     32         35.629353   0.000000
     33         39.064782   0.000000
     34         39.064783   0.000000
     35         39.185524   0.000000
     36         39.616827   0.000000
     37         39.616842   0.000000
     38         40.415863   0.000000
     39         41.125770   0.000000
     40         41.652010   0.000000
     41         41.652059   0.000000
     42         44.160328   0.000000
     43         44.834911   0.000000
     44         44.834922   0.000000
     45         45.896049   0.000000
     46         46.723231   0.000000
     47         46.723260   0.000000
     48         47.423829   0.000000
     49         50.571316   0.000000
     50         50.571324   0.000000
     51         52.096238   0.000000
     52         52.208401   0.000000
     53         52.208413   0.000000
     54         54.353921   0.000000
     55         54.353932   0.000000
     56         54.968532   0.000000
     57         55.324942   0.000000
     58         58.395011   0.000000
     59         58.611478   0.000000
     60         58.611491   0.000000
     61         60.241575   0.000000
     62         60.241581   0.000000
     63         60.621681   0.000000
     64         60.621698   0.000000
     65         61.283967   0.000000
     66         62.742006   0.000000
     67         63.228235   0.000000
     68         63.228323   0.000000
     69         66.876901   0.000000
     70         69.655242   0.000000
     71         69.750702   0.000000
     72         69.750791   0.000000
 
  0.3333333E+00 -0.6188984E-15  0.7098576E-14  0.2370370E-02
      1        -14.702068   1.000000
      2        -14.647922   1.000000
      3        -14.647903   1.000000
      4        -14.580822   1.000000
      5        -14.580807   1.000000
      6        -10.012296   1.000000
      7         -3.099861   1.000000
      8          1.683201   1.000000
      9          1.683234   1.000000
     10          4.710441   0.000000
     11          8.213478   0.000000
     12          8.213509   0.000000
     13         10.968645   0.000000
     14         12.416829   0.000000
     15         13.298954   0.000000
     16         13.298974   0.000000
     17         17.475717   0.000000
     18         20.340372   0.000000
     19         20.340407   0.000000
     20         21.332142   0.000000
     21         21.761856   0.000000
     22         21.761862   0.000000
     23         24.775212   0.000000
     24         30.668032   0.000000
     25         31.250835   0.000000
     26         31.250851   0.000000
     27         31.613982   0.000000
     28         31.614000   0.000000
     29         32.195629   0.000000
     30         32.552927   0.000000
     31         32.552929   0.000000
     32         35.428427   0.000000
     33         37.241446   0.000000
     34         38.209182   0.000000
     35         38.209199   0.000000
     36         38.678841   0.000000
     37         38.678847   0.000000
     38         39.345573   0.000000
     39         40.327814   0.000000
     40         43.859117   0.000000
     41         43.868566   0.000000
     42         43.868599   0.000000
     43         44.940977   0.000000
     44         44.940993   0.000000
     45         46.456961   0.000000
     46         46.456990   0.000000
     47         47.057675   0.000000
     48         48.175204   0.000000
     49         51.367536   0.000000
     50         51.367544   0.000000
     51         53.053564   0.000000
     52         54.173907   0.000000
     53         54.173928   0.000000
     54         56.194747   0.000000
     55         56.194768   0.000000
     56         56.655814   0.000000
     57         57.362133   0.000000
     58         58.872173   0.000000
     59         58.872177   0.000000
     60         59.143785   0.000000
     61         59.874117   0.000000
     62         59.874248   0.000000
     63         61.192126   0.000000
     64         61.477737   0.000000
     65         61.477742   0.000000
     66         63.354919   0.000000
     67         63.354927   0.000000
     68         63.448817   0.000000
     69         66.457275   0.000000
     70         67.143898   0.000000
     71         67.143964   0.000000
     72         70.239311   0.000000
 
  0.4000000E+00  0.3112042E-15  0.4964164E-17  0.2370370E-02
      1        -14.710522   1.000000
      2        -14.645410   1.000000
      3        -14.645387   1.000000
      4        -14.579628   1.000000
      5        -14.579609   1.000000
      6         -9.624829   1.000000
      7         -3.968077   1.000000
      8          1.532150   1.000000
      9          1.532185   1.000000
     10          4.560395   0.000000
     11          8.177005   0.000000
     12          8.177028   0.000000
     13         11.353592   0.000000
     14         13.081392   0.000000
     15         14.264419   0.000000
     16         14.264444   0.000000
     17         17.639090   0.000000
     18         18.707776   0.000000
     19         18.707813   0.000000
     20         21.513053   0.000000
     21         23.505172   0.000000
     22         23.505176   0.000000
     23         26.567557   0.000000
     24         28.557341   0.000000
     25         29.612780   0.000000
     26         29.612795   0.000000
     27         31.755002   0.000000
     28         31.755009   0.000000
     29         32.433664   0.000000
     30         32.433679   0.000000
     31         32.509447   0.000000
     32         33.731938   0.000000
     33         36.920753   0.000000
     34         37.445006   0.000000
     35         37.445037   0.000000
     36         37.938841   0.000000
     37         37.938845   0.000000
     38         38.541363   0.000000
     39         39.567538   0.000000
     40         43.644021   0.000000
     41         44.653783   0.000000
     42         44.653802   0.000000
     43         45.784607   0.000000
     44         45.784637   0.000000
     45         47.159064   0.000000
     46         47.159081   0.000000
     47         47.345193   0.000000
     48         50.106137   0.000000
     49         52.326779   0.000000
     50         52.326784   0.000000
     51         54.024800   0.000000
     52         55.644108   0.000000
     53         55.644155   0.000000
     54         56.243808   0.000000
     55         56.587426   0.000000
     56         56.587429   0.000000
     57         57.390482   0.000000
     58         57.390567   0.000000
     59         59.465703   0.000000
     60         59.581397   0.000000
     61         59.581434   0.000000
     62         59.871408   0.000000
     63         61.911145   0.000000
     64         63.202251   0.000000
     65         63.279955   0.000000
     66         63.279996   0.000000
     67         64.604326   0.000000
     68         64.604337   0.000000
     69         66.363120   0.000000
     70         66.363156   0.000000
     71         67.883210   0.000000
     72         68.028953   0.000000
 
  0.4666667E+00 -0.4652167E-15 -0.2835949E-17  0.2370370E-02
      1        -14.714305   1.000000
      2        -14.644434   1.000000
      3        -14.644410   1.000000
      4        -14.579320   1.000000
      5        -14.579299   1.000000
      6         -9.364035   1.000000
      7         -4.467581   1.000000
      8          1.454008   1.000000
      9          1.454043   1.000000
     10          4.484012   0.000000
     11          8.133470   0.000000
     12          8.133489   0.000000
     13         11.340759   0.000000
     14         14.087577   0.000000
     15         15.382916   0.000000
     16         15.382939   0.000000
     17         16.767396   0.000000
     18         17.251625   0.000000
     19         17.251664   0.000000
     20         22.972659   0.000000
     21         25.394416   0.000000
     22         25.394417   0.000000
     23         26.001361   0.000000
     24         27.544909   0.000000
     25         27.544926   0.000000
     26         29.189140   0.000000
     27         31.454797   0.000000
     28         31.933335   0.000000
     29         31.933343   0.000000
     30         32.617012   0.000000
     31         32.617026   0.000000
     32         32.710191   0.000000
     33         36.987071   0.000000
     34         36.987107   0.000000
     35         37.215968   0.000000
     36         37.540518   0.000000
     37         37.540528   0.000000
     38         38.094447   0.000000
     39         39.023637   0.000000
     40         43.536810   0.000000
     41         44.765920   0.000000
     42         44.765946   0.000000
     43         45.662591   0.000000
     44         45.662637   0.000000
     45         47.406873   0.000000
     46         49.415042   0.000000
     47         49.415059   0.000000
     48         52.239179   0.000000
     49         52.858364   0.000000
     50         52.858471   0.000000
     51         54.150113   0.000000
     52         54.444228   0.000000
     53         54.444231   0.000000
     54         55.263409   0.000000
     55         55.673737   0.000000
     56         55.673743   0.000000
     57         58.243995   0.000000
     58         58.243998   0.000000
     59         59.682195   0.000000
     60         61.395422   0.000000
     61         61.395434   0.000000
     62         61.409145   0.000000
     63         62.459185   0.000000
     64         62.476066   0.000000
     65         62.476146   0.000000
     66         64.427848   0.000000
     67         64.427908   0.000000
     68         64.572232   0.000000
     69         65.299068   0.000000
     70         66.316832   0.000000
     71         66.316843   0.000000
     72         67.764429   0.000000
 
  0.6666667E-01  0.6666667E-01  0.4564887E-17  0.1777778E-02
      1        -14.666521   1.000000
      2        -14.660626   1.000000
      3        -14.660625   1.000000
      4        -14.582346   1.000000
      5        -14.581624   1.000000
      6        -11.182386   1.000000
      7          1.858395   1.000000
      8          2.452945   1.000000
      9          2.452957   1.000000
     10          4.969354   0.000000
     11          6.952680   0.000000
     12          7.529788   0.000000
     13          7.529842   0.000000
     14         11.687301   0.000000
     15         12.739296   0.000000
     16         13.804926   0.000000
     17         15.390444   0.000000
     18         15.390446   0.000000
     19         15.908488   0.000000
     20         18.857416   0.000000
     21         27.925526   0.000000
     22         27.925549   0.000000
     23         28.892342   0.000000
     24         29.177161   0.000000
     25         30.238085   0.000000
     26         30.726610   0.000000
     27         30.726623   0.000000
     28         32.487347   0.000000
     29         32.840443   0.000000
     30         32.840485   0.000000
     31         33.735608   0.000000
     32         39.258944   0.000000
     33         40.833461   0.000000
     34         41.635473   0.000000
     35         41.635474   0.000000
     36         42.562207   0.000000
     37         42.811557   0.000000
     38         43.651839   0.000000
     39         43.651860   0.000000
     40         44.101249   0.000000
     41         44.892484   0.000000
     42         44.892487   0.000000
     43         44.966686   0.000000
     44         45.749751   0.000000
     45         45.854371   0.000000
     46         46.397409   0.000000
     47         46.397426   0.000000
     48         46.924292   0.000000
     49         47.316890   0.000000
     50         47.657984   0.000000
     51         47.657990   0.000000
     52         49.456786   0.000000
     53         49.456792   0.000000
     54         49.505796   0.000000
     55         49.743804   0.000000
     56         51.104319   0.000000
     57         51.104337   0.000000
     58         51.368180   0.000000
     59         52.750148   0.000000
     60         53.639129   0.000000
     61         55.840054   0.000000
     62         55.840070   0.000000
     63         56.912148   0.000000
     64         59.670425   0.000000
     65         64.563743   0.000000
     66         68.098385   0.000000
     67         68.914050   0.000000
     68         68.914073   0.000000
     69         69.962281   0.000000
     70         71.890472   0.000000
     71         71.890653   0.000000
     72         73.260454   0.000000
 
  0.1333333E+00  0.6666667E-01  0.1226491E-16  0.7111111E-02
      1        -14.672299   1.000000
      2        -14.658181   1.000000
      3        -14.658149   1.000000
      4        -14.583253   1.000000
      5        -14.581203   1.000000
      6        -11.053471   1.000000
      7          0.875915   1.000000
      8          2.203426   1.000000
      9          2.316012   1.000000
     10          5.477715   0.000000
     11          6.890566   0.000000
     12          7.894559   0.000000
     13          7.967833   0.000000
     14         12.041328   0.000000
     15         12.389216   0.000000
     16         13.535167   0.000000
     17         15.041309   0.000000
     18         16.105442   0.000000
     19         16.894145   0.000000
     20         19.858368   0.000000
     21         26.198133   0.000000
     22         26.268856   0.000000
     23         28.100022   0.000000
     24         28.839580   0.000000
     25         29.276755   0.000000
     26         30.862058   0.000000
     27         31.618656   0.000000
     28         33.187763   0.000000
     29         33.275103   0.000000
     30         34.514647   0.000000
     31         35.696650   0.000000
     32         38.622556   0.000000
     33         39.515520   0.000000
     34         40.239350   0.000000
     35         40.434669   0.000000
     36         41.033513   0.000000
     37         41.825863   0.000000
     38         42.556212   0.000000
     39         43.204526   0.000000
     40         43.254672   0.000000
     41         44.058587   0.000000
     42         44.378143   0.000000
     43         44.942537   0.000000
     44         45.687130   0.000000
     45         45.928130   0.000000
     46         46.840542   0.000000
     47         47.116746   0.000000
     48         47.593630   0.000000
     49         47.845601   0.000000
     50         48.540213   0.000000
     51         48.788213   0.000000
     52         49.176738   0.000000
     53         50.181745   0.000000
     54         50.318832   0.000000
     55         51.113496   0.000000
     56         51.259878   0.000000
     57         51.630207   0.000000
     58         52.787922   0.000000
     59         53.630684   0.000000
     60         54.394140   0.000000
     61         56.408829   0.000000
     62         57.292400   0.000000
     63         58.965265   0.000000
     64         60.981242   0.000000
     65         62.547938   0.000000
     66         66.383316   0.000000
     67         67.243128   0.000000
     68         68.853105   0.000000
     69         69.831342   0.000000
     70         71.277385   0.000000
     71         71.796432   0.000000
     72         72.750530   0.000000
 
  0.2000000E+00  0.6666667E-01  0.7105497E-14  0.7111111E-02
      1        -14.681130   1.000000
      2        -14.654937   1.000000
      3        -14.654419   1.000000
      4        -14.583759   1.000000
      5        -14.580527   1.000000
      6        -10.819083   1.000000
      7         -0.387658   1.000000
      8          1.921427   1.000000
      9          2.102921   1.000000
     10          5.567405   0.000000
     11          7.210364   0.000000
     12          8.288743   0.000000
     13          8.665649   0.000000
     14         11.765363   0.000000
     15         13.069439   0.000000
     16         13.224083   0.000000
     17         14.866218   0.000000
     18         17.349646   0.000000
     19         18.271828   0.000000
     20         21.211497   0.000000
     21         24.169843   0.000000
     22         24.331441   0.000000
     23         26.389093   0.000000
     24         28.974745   0.000000
     25         29.229423   0.000000
     26         31.089930   0.000000
     27         31.980497   0.000000
     28         33.468091   0.000000
     29         34.105413   0.000000
     30         35.765603   0.000000
     31         37.174313   0.000000
     32         37.387413   0.000000
     33         37.904740   0.000000
     34         39.020566   0.000000
     35         39.306346   0.000000
     36         39.686700   0.000000
     37         40.847004   0.000000
     38         41.824017   0.000000
     39         41.860154   0.000000
     40         42.629223   0.000000
     41         43.339002   0.000000
     42         43.750186   0.000000
     43         44.694272   0.000000
     44         45.083646   0.000000
     45         45.779468   0.000000
     46         47.002737   0.000000
     47         47.171993   0.000000
     48         48.226803   0.000000
     49         48.240243   0.000000
     50         49.220332   0.000000
     51         49.807066   0.000000
     52         49.954970   0.000000
     53         51.096778   0.000000
     54         51.586609   0.000000
     55         52.619867   0.000000
     56         53.147904   0.000000
     57         54.119319   0.000000
     58         54.367837   0.000000
     59         55.246691   0.000000
     60         56.281852   0.000000
     61         57.343636   0.000000
     62         58.938579   0.000000
     63         60.139538   0.000000
     64         61.145821   0.000000
     65         63.848339   0.000000
     66         64.353442   0.000000