<?xml version="1.0" encoding="ISO-8859-1"?>
<modeling>
 <generator>
  <i name="program" type="string">vasp </i>
  <i name="version" type="string">6.3.0  </i>
  <i name="subversion" type="string">20Jan22 (build Jan 24 2022 10:38:53) complex                          parallel </i>
  <i name="platform" type="string">CrayXC50 </i>
  <i name="date" type="string">2022 05 14 </i>
  <i name="time" type="string">11:19:22 </i>
 </generator>
 <incar>
  <i type="int" name="ISTART">     1</i>
  <i type="string" name="PREC">N    (Precision level)</i>
  <i type="string" name="ALGO">EXACT</i>
  <i type="logical" name="ADDGRID"> T  </i>
  <i type="int" name="NELM">    40</i>
  <i type="int" name="NELMIN">     4</i>
  <i name="EDIFF">      0.00000100</i>
  <i name="ENCUT">    300.00000000</i>
  <i type="int" name="NBANDS">    72</i>
  <i type="int" name="NEDOS">  2001</i>
  <i type="logical" name="LREAL"> F  </i>
  <i name="TIME">      0.40000000</i>
  <i type="int" name="ISMEAR">     0</i>
  <i name="SIGMA">      0.05000000</i>
  <i type="logical" name="LWAVE"> T  </i>
  <i type="logical" name="LCHARG"> T  </i>
  <i type="logical" name="LOPTICS"> T  </i>
  <i name="CSHIFT">      0.10000000</i>
  <i name="HFSCREEN">      0.20000000</i>
  <i type="logical" name="LHFCALC"> T  </i>
  <i type="int" name="NKRED">     3</i>
  <i name="AEXX">      0.25000000</i>
  <i type="string" name="PRECFOCK">normal</i>
 </incar>
 <primitive_cell>
  <structure name="primitive_cell" >
   <crystal>
    <varray name="basis" >
     <v>       0.00000000       2.82685000       2.82685000 </v>
     <v>       2.82685000       0.00000000       2.82685000 </v>
     <v>       2.82685000       2.82685000       0.00000000 </v>
    </varray>
    <i name="volume">     45.17917421 </i>
    <varray name="rec_basis" >
     <v>      -0.17687532       0.17687532       0.17687532 </v>
     <v>       0.17687532      -0.17687532       0.17687532 </v>
     <v>       0.17687532       0.17687532      -0.17687532 </v>
    </varray>
   </crystal>
   <varray name="positions" >
    <v>       0.25000000       0.25000000       0.25000000 </v>
    <v>       0.00000000       0.00000000       0.00000000 </v>
   </varray>
  </structure>
  <varray name="primitive_index" >
   <v type="int" >        1 </v>
   <v type="int" >        2 </v>
  </varray>
 </primitive_cell>
 <kpoints>
  <generation param="Gamma">
   <v type="int" name="divisions">      15       15       15 </v>
   <v name="usershift">      0.00000000       0.00000000       0.00000000 </v>
   <v name="genvec1">      0.06666667      -0.00000000       0.00000000 </v>
   <v name="genvec2">     -0.00000000       0.06666667      -0.00000000 </v>
   <v name="genvec3">      0.00000000       0.00000000       0.06666667 </v>
   <v name="shift">      0.00000000       0.00000000       0.00000000 </v>
  </generation>
  <varray name="kpointlist" >
   <v>       0.00000000       0.00000000       0.00000000 </v>
   <v>       0.06666667      -0.00000000       0.00000000 </v>
   <v>       0.13333333       0.00000000       0.00000000 </v>
   <v>       0.20000000      -0.00000000      -0.00000000 </v>
   <v>       0.26666667       0.00000000       0.00000000 </v>
   <v>       0.33333333      -0.00000000       0.00000000 </v>
   <v>       0.40000000       0.00000000       0.00000000 </v>
   <v>       0.46666667      -0.00000000      -0.00000000 </v>
   <v>       0.06666667       0.06666667       0.00000000 </v>
   <v>       0.13333333       0.06666667       0.00000000 </v>
   <v>       0.20000000       0.06666667       0.00000000 </v>
   <v>       0.26666667       0.06666667       0.00000000 </v>
   <v>       0.33333333       0.06666667       0.00000000 </v>
   <v>       0.40000000       0.06666667      -0.00000000 </v>
   <v>       0.46666667       0.06666667       0.00000000 </v>
   <v>      -0.46666667       0.06666667      -0.00000000 </v>
   <v>      -0.40000000       0.06666667       0.00000000 </v>
   <v>      -0.33333333       0.06666667       0.00000000 </v>
   <v>      -0.26666667       0.06666667      -0.00000000 </v>
   <v>      -0.20000000       0.06666667      -0.00000000 </v>
   <v>      -0.13333333       0.06666667      -0.00000000 </v>
   <v>      -0.06666667       0.06666667      -0.00000000 </v>
   <v>       0.13333333       0.13333333       0.00000000 </v>
   <v>       0.20000000       0.13333333       0.00000000 </v>
   <v>       0.26666667       0.13333333       0.00000000 </v>
   <v>       0.33333333       0.13333333       0.00000000 </v>
   <v>       0.40000000       0.13333333       0.00000000 </v>
   <v>       0.46666667       0.13333333       0.00000000 </v>
   <v>      -0.46666667       0.13333333       0.00000000 </v>
   <v>      -0.40000000       0.13333333      -0.00000000 </v>
   <v>      -0.33333333       0.13333333       0.00000000 </v>
   <v>      -0.26666667       0.13333333      -0.00000000 </v>
   <v>      -0.20000000       0.13333333       0.00000000 </v>
   <v>      -0.13333333       0.13333333      -0.00000000 </v>
   <v>       0.20000000       0.20000000       0.00000000 </v>
   <v>       0.26666667       0.20000000       0.00000000 </v>
   <v>       0.33333333       0.20000000       0.00000000 </v>
   <v>       0.40000000       0.20000000       0.00000000 </v>
   <v>       0.46666667       0.20000000       0.00000000 </v>
   <v>      -0.46666667       0.20000000       0.00000000 </v>
   <v>      -0.40000000       0.20000000       0.00000000 </v>
   <v>      -0.33333333       0.20000000      -0.00000000 </v>
   <v>      -0.26666667       0.20000000       0.00000000 </v>
   <v>      -0.20000000       0.20000000      -0.00000000 </v>
   <v>       0.26666667       0.26666667       0.00000000 </v>
   <v>       0.33333333       0.26666667       0.00000000 </v>
   <v>       0.40000000       0.26666667       0.00000000 </v>
   <v>       0.46666667       0.26666667       0.00000000 </v>
   <v>      -0.46666667       0.26666667       0.00000000 </v>
   <v>      -0.40000000       0.26666667      -0.00000000 </v>
   <v>      -0.33333333       0.26666667      -0.00000000 </v>
   <v>      -0.26666667       0.26666667      -0.00000000 </v>
   <v>       0.33333333       0.33333333       0.00000000 </v>
   <v>       0.40000000       0.33333333       0.00000000 </v>
   <v>       0.46666667       0.33333333       0.00000000 </v>
   <v>      -0.46666667       0.33333333      -0.00000000 </v>
   <v>      -0.40000000       0.33333333       0.00000000 </v>
   <v>      -0.33333333       0.33333333      -0.00000000 </v>
   <v>       0.40000000       0.40000000       0.00000000 </v>
   <v>       0.46666667       0.40000000       0.00000000 </v>
   <v>      -0.46666667       0.40000000       0.00000000 </v>
   <v>      -0.40000000       0.40000000       0.00000000 </v>
   <v>       0.46666667       0.46666667       0.00000000 </v>
   <v>      -0.46666667       0.46666667       0.00000000 </v>
   <v>       0.20000000       0.13333333       0.06666667 </v>
   <v>       0.26666667       0.13333333       0.06666667 </v>
   <v>       0.33333333       0.13333333       0.06666667 </v>
   <v>       0.40000000       0.13333333       0.06666667 </v>
   <v>       0.46666667       0.13333333       0.06666667 </v>
   <v>      -0.46666667       0.13333333       0.06666667 </v>
   <v>       0.26666667       0.20000000       0.06666667 </v>
   <v>       0.33333333       0.20000000       0.06666667 </v>
   <v>       0.40000000       0.20000000       0.06666667 </v>
   <v>       0.46666667       0.20000000       0.06666667 </v>
   <v>      -0.46666667       0.20000000       0.06666667 </v>
   <v>      -0.40000000       0.20000000       0.06666667 </v>
   <v>      -0.33333333       0.20000000       0.06666667 </v>
   <v>      -0.26666667       0.20000000       0.06666667 </v>
   <v>      -0.20000000       0.20000000       0.06666667 </v>
   <v>      -0.13333333       0.20000000       0.06666667 </v>
   <v>       0.33333333       0.26666667       0.06666667 </v>
   <v>       0.40000000       0.26666667       0.06666667 </v>
   <v>       0.46666667       0.26666667       0.06666667 </v>
   <v>      -0.46666667       0.26666667       0.06666667 </v>
   <v>      -0.40000000       0.26666667       0.06666667 </v>
   <v>      -0.33333333       0.26666667       0.06666667 </v>
   <v>      -0.26666667       0.26666667       0.06666667 </v>
   <v>      -0.20000000       0.26666667       0.06666667 </v>
   <v>       0.40000000       0.33333333       0.06666667 </v>
   <v>       0.46666667       0.33333333       0.06666667 </v>
   <v>      -0.46666667       0.33333333       0.06666667 </v>
   <v>      -0.40000000       0.33333333       0.06666667 </v>
   <v>      -0.33333333       0.33333333       0.06666667 </v>
   <v>      -0.26666667       0.33333333       0.06666667 </v>
   <v>       0.46666667       0.40000000       0.06666667 </v>
   <v>      -0.46666667       0.40000000       0.06666667 </v>
   <v>      -0.40000000       0.40000000       0.06666667 </v>
   <v>      -0.33333333       0.40000000       0.06666667 </v>
   <v>      -0.46666667       0.46666667       0.06666667 </v>
   <v>      -0.40000000       0.46666667       0.06666667 </v>
   <v>       0.40000000       0.26666667       0.13333333 </v>
   <v>       0.46666667       0.26666667       0.13333333 </v>
   <v>      -0.46666667       0.26666667       0.13333333 </v>
   <v>      -0.40000000       0.26666667       0.13333333 </v>
   <v>       0.46666667       0.33333333       0.13333333 </v>
   <v>      -0.46666667       0.33333333       0.13333333 </v>
   <v>      -0.40000000       0.33333333       0.13333333 </v>
   <v>      -0.33333333       0.33333333       0.13333333 </v>
   <v>      -0.26666667       0.33333333       0.13333333 </v>
   <v>      -0.20000000       0.33333333       0.13333333 </v>
   <v>      -0.46666667       0.40000000       0.13333333 </v>
   <v>      -0.40000000       0.40000000       0.13333333 </v>
   <v>      -0.33333333       0.40000000       0.13333333 </v>
   <v>      -0.26666667       0.40000000       0.13333333 </v>
   <v>      -0.40000000       0.46666667       0.13333333 </v>
   <v>      -0.33333333       0.46666667       0.13333333 </v>
   <v>      -0.40000000       0.40000000       0.20000000 </v>
   <v>      -0.33333333       0.40000000       0.20000000 </v>
   <v>      -0.33333333       0.46666667       0.20000000 </v>
   <v>      -0.26666667       0.46666667       0.20000000 </v>
  </varray>
  <varray name="weights" >
   <v>       0.00029630 </v>
   <v>       0.00237037 </v>
   <v>       0.00237037 </v>
   <v>       0.00237037 </v>
   <v>       0.00237037 </v>
   <v>       0.00237037 </v>
   <v>       0.00237037 </v>
   <v>       0.00237037 </v>
   <v>       0.00177778 </v>
   <v>       0.00711111 </v>
   <v>       0.00711111 </v>
   <v>       0.00711111 </v>
   <v>       0.00711111 </v>
   <v>       0.00711111 </v>
   <v>       0.00711111 </v>
   <v>       0.00711111 </v>
   <v>       0.00711111 </v>
   <v>       0.00711111 </v>
   <v>       0.00711111 </v>
   <v>       0.00711111 </v>
   <v>       0.00711111 </v>
   <v>       0.00355556 </v>
   <v>       0.00177778 </v>
   <v>       0.00711111 </v>
   <v>       0.00711111 </v>
   <v>       0.00711111 </v>
   <v>       0.00711111 </v>
   <v>       0.00711111 </v>
   <v>       0.00711111 </v>
   <v>       0.00711111 </v>
   <v>       0.00711111 </v>
   <v>       0.00711111 </v>
   <v>       0.00711111 </v>
   <v>       0.00355556 </v>
   <v>       0.00177778 </v>
   <v>       0.00711111 </v>
   <v>       0.00711111 </v>
   <v>       0.00711111 </v>
   <v>       0.00711111 </v>
   <v>       0.00711111 </v>
   <v>       0.00711111 </v>
   <v>       0.00711111 </v>
   <v>       0.00711111 </v>
   <v>       0.00355556 </v>
   <v>       0.00177778 </v>
   <v>       0.00711111 </v>
   <v>       0.00711111 </v>
   <v>       0.00711111 </v>
   <v>       0.00711111 </v>
   <v>       0.00711111 </v>
   <v>       0.00711111 </v>
   <v>       0.00355556 </v>
   <v>       0.00177778 </v>
   <v>       0.00711111 </v>
   <v>       0.00711111 </v>
   <v>       0.00711111 </v>
   <v>       0.00711111 </v>
   <v>       0.00355556 </v>
   <v>       0.00177778 </v>
   <v>       0.00711111 </v>
   <v>       0.00711111 </v>
   <v>       0.00355556 </v>
   <v>       0.00177778 </v>
   <v>       0.00355556 </v>
   <v>       0.00711111 </v>
   <v>       0.01422222 </v>
   <v>       0.01422222 </v>
   <v>       0.01422222 </v>
   <v>       0.01422222 </v>
   <v>       0.01422222 </v>
   <v>       0.00711111 </v>
   <v>       0.01422222 </v>
   <v>       0.01422222 </v>
   <v>       0.01422222 </v>
   <v>       0.01422222 </v>
   <v>       0.01422222 </v>
   <v>       0.01422222 </v>
   <v>       0.01422222 </v>
   <v>       0.01422222 </v>
   <v>       0.00711111 </v>
   <v>       0.00711111 </v>
   <v>       0.01422222 </v>
   <v>       0.01422222 </v>
   <v>       0.01422222 </v>
   <v>       0.01422222 </v>
   <v>       0.01422222 </v>
   <v>       0.01422222 </v>
   <v>       0.00711111 </v>
   <v>       0.00711111 </v>
   <v>       0.01422222 </v>
   <v>       0.01422222 </v>
   <v>       0.01422222 </v>
   <v>       0.01422222 </v>
   <v>       0.00711111 </v>
   <v>       0.00711111 </v>
   <v>       0.01422222 </v>
   <v>       0.01422222 </v>
   <v>       0.00711111 </v>
   <v>       0.00711111 </v>
   <v>       0.00711111 </v>
   <v>       0.00711111 </v>
   <v>       0.01422222 </v>
   <v>       0.01422222 </v>
   <v>       0.01422222 </v>
   <v>       0.00711111 </v>
   <v>       0.01422222 </v>
   <v>       0.01422222 </v>
   <v>       0.01422222 </v>
   <v>       0.01422222 </v>
   <v>       0.00711111 </v>
   <v>       0.00711111 </v>
   <v>       0.01422222 </v>
   <v>       0.01422222 </v>
   <v>       0.00711111 </v>
   <v>       0.00711111 </v>
   <v>       0.00711111 </v>
   <v>       0.00711111 </v>
   <v>       0.01422222 </v>
   <v>       0.00711111 </v>
   <v>       0.00711111 </v>
  </varray>
 </kpoints>
 <parameters>
  <separator name="general" >
   <i type="string" name="SYSTEM">unknown system</i>
   <i type="logical" name="LCOMPAT"> F  </i>
  </separator>
  <separator name="electronic" >
   <i type="string" name="PREC">n    (</i>
   <i name="ENMAX">    300.00000000</i>
   <i name="ENAUG">    490.69000000</i>
   <i name="EDIFF">      0.00000100</i>
   <i type="int" name="IALGO">    90</i>
   <i type="int" name="IWAVPR">    10</i>
   <i type="int" name="NBANDS">    72</i>
   <i type="int" name="NBANDSLOW">    -1</i>
   <i type="int" name="NBANDSHIGH">    -1</i>
   <i name="NELECT">     18.00000000</i>
   <i type="int" name="TURBO">     0</i>
   <i type="int" name="IRESTART">     0</i>
   <i type="int" name="NREBOOT">     0</i>
   <i type="int" name="NMIN">     0</i>
   <i name="EREF">      0.00000000</i>
   <separator name="electronic smearing" >
    <i type="int" name="ISMEAR">     0</i>
    <i name="SIGMA">      0.05000000</i>
    <i name="KSPACING">      0.50000000</i>
    <i type="logical" name="KGAMMA"> T  </i>
    <i type="logical" name="KBLOWUP"> T  </i>
   </separator>
   <separator name="electronic projectors" >
    <i type="logical" name="LREAL"> F  </i>
    <v name="ROPT">      0.00000000      0.00000000</v>
    <i type="int" name="LMAXPAW">  -100</i>
    <i type="int" name="LMAXMIX">     2</i>
    <i type="logical" name="NLSPLINE"> F  </i>
   </separator>
   <separator name="electronic startup" >
    <i type="int" name="ISTART">     1</i>
    <i type="int" name="ICHARG">     0</i>
    <i type="int" name="INIWAV">     1</i>
   </separator>
   <separator name="electronic spin" >
    <i type="int" name="ISPIN">     1</i>
    <i type="logical" name="LNONCOLLINEAR"> F  </i>
    <v name="MAGMOM">      1.00000000      1.00000000</v>
    <i name="NUPDOWN">     -1.00000000</i>
    <i type="logical" name="LSORBIT"> F  </i>
    <v name="SAXIS">      0.00000000      0.00000000      1.00000000</v>
    <i type="logical" name="LSPIRAL"> F  </i>
    <v name="QSPIRAL">      0.00000000      0.00000000      0.00000000</v>
    <i type="logical" name="LZEROZ"> F  </i>
   </separator>
   <separator name="electronic exchange-correlation" >
    <i type="logical" name="LASPH"> F  </i>
    <i type="logical" name="LMETAGGA"> F  </i>
   </separator>
   <separator name="electronic convergence" >
    <i type="int" name="NELM">    40</i>
    <i type="int" name="NELMDL">     0</i>
    <i type="int" name="NELMIN">     4</i>
    <i name="ENINI">    300.00000000</i>
    <separator name="electronic convergence detail" >
     <i type="logical" name="LDIAG"> T  </i>
     <i type="logical" name="LSUBROT"> F  </i>
     <i name="WEIMIN">      0.00000000</i>
     <i name="EBREAK">      0.00000000</i>
     <i name="DEPER">      0.30000000</i>
     <i type="int" name="NRMM">     4</i>
     <i name="TIME">      0.40000000</i>
    </separator>
   </separator>
   <separator name="electronic mixer" >
    <i name="AMIX">      0.40000000</i>
    <i name="BMIX">      1.00000000</i>
    <i name="AMIN">      0.10000000</i>
    <i name="AMIX_MAG">      1.60000000</i>
    <i name="BMIX_MAG">      1.00000000</i>
    <separator name="electronic mixer details" >
     <i type="int" name="IMIX">     1</i>
     <i type="logical" name="MIXFIRST"> F  </i>
     <i type="int" name="MAXMIX">   -45</i>
     <i name="WC">    100.00000000</i>
     <i type="int" name="INIMIX">     1</i>
     <i type="int" name="MIXPRE">     1</i>
     <i type="int" name="MREMOVE">     5</i>
    </separator>
   </separator>
   <separator name="electronic dipolcorrection" >
    <i type="logical" name="LDIPOL"> F  </i>
    <i type="logical" name="LMONO"> F  </i>
    <i type="int" name="IDIPOL">     0</i>
    <i name="EPSILON">      1.00000000</i>
    <v name="DIPOL">   -100.00000000   -100.00000000   -100.00000000</v>
    <i name="EFIELD">      0.00000000</i>
   </separator>
  </separator>
  <separator name="grids" >
   <i type="int" name="NGX">    18</i>
   <i type="int" name="NGY">    18</i>
   <i type="int" name="NGZ">    18</i>
   <i type="int" name="NGXF">    36</i>
   <i type="int" name="NGYF">    36</i>
   <i type="int" name="NGZF">    36</i>
   <i type="logical" name="ADDGRID"> T  </i>
  </separator>
  <separator name="ionic" >
   <i type="int" name="NSW">     0</i>
   <i type="int" name="IBRION">    -1</i>
   <i type="int" name="MDALGO">     0</i>
   <i type="int" name="ISIF">     0</i>
   <i name="PSTRESS">      0.00000000</i>
   <i name="EDIFFG">      0.00001000</i>
   <i type="int" name="NFREE">     0</i>
   <i name="POTIM">      0.50000000</i>
   <i name="SMASS">     -3.00000000</i>
   <i name="SCALEE">      1.00000000</i>
  </separator>
  <separator name="ionic md" >
   <i name="TEBEG">      0.00010000</i>
   <i name="TEEND">      0.00010000</i>
   <i type="int" name="NBLOCK">     1</i>
   <i type="int" name="KBLOCK">     1</i>
   <i type="int" name="NPACO">   256</i>
   <i name="APACO">     10.00000000</i>
  </separator>
  <separator name="symmetry" >
   <i type="int" name="ISYM">     3</i>
   <i name="SYMPREC">      0.00001000</i>
  </separator>
  <separator name="dos" >
   <i type="int" name="LORBIT">     0</i>
   <v name="RWIGS">     -1.00000000     -1.00000000</v>
   <i type="int" name="NEDOS">  2001</i>
   <i name="EMIN">     10.00000000</i>
   <i name="EMAX">    -10.00000000</i>
   <i name="EFERMI">      0.00000000</i>
  </separator>
  <separator name="writing" >
   <i type="int" name="NWRITE">     2</i>
   <i type="logical" name="LWAVE"> T  </i>
   <i type="logical" name="LDOWNSAMPLE"> F  </i>
   <i type="logical" name="LCHARG"> T  </i>
   <i type="logical" name="LPARD"> F  </i>
   <i type="logical" name="LVTOT"> F  </i>
   <i type="logical" name="LVHAR"> F  </i>
   <i type="logical" name="LELF"> F  </i>
   <i type="logical" name="LOPTICS"> T  </i>
   <v name="STM">      0.00000000      0.00000000      0.00000000      0.00000000      0.00000000      0.00000000      0.00000000</v>
  </separator>
  <separator name="performance" >
   <i type="int" name="NPAR">     6</i>
   <i type="int" name="NSIM">     4</i>
   <i type="int" name="NBLK">    -1</i>
   <i type="logical" name="LPLANE"> T  </i>
   <i type="logical" name="LSCALAPACK"> T  </i>
   <i type="logical" name="LSCAAWARE"> F  </i>
   <i type="logical" name="LSCALU"> F  </i>
   <i type="logical" name="LASYNC"> F  </i>
   <i type="logical" name="LORBITALREAL"> F  </i>
  </separator>
  <separator name="miscellaneous" >
   <i type="int" name="IDIOT">     3</i>
   <i type="int" name="PHON_NSTRUCT">    -1</i>
   <i type="logical" name="LMUSIC"> F  </i>
   <v name="POMASS">     74.92200000     69.72300000</v>
   <v name="DARWINR">      0.00000000      0.00000000</v>
   <v name="DARWINV">      1.00000000      1.00000000</v>
   <i type="logical" name="LCORR"> T  </i>
  </separator>
  <i type="logical" name="GGA_COMPAT"> T  </i>
  <i type="logical" name="LBERRY"> F  </i>
  <i type="int" name="ICORELEVEL">     0</i>
  <i type="logical" name="LDAU"> F  </i>
  <i type="int" name="I_CONSTRAINED_M">     0</i>
  <separator name="electronic exchange-correlation" >
   <i type="string" name="GGA">--</i>
   <i type="int" name="VOSKOWN">     0</i>
   <i type="logical" name="LHFCALC"> T  </i>
   <i type="string" name="PRECFOCK">normal</i>
   <i type="logical" name="LSYMGRAD"> F  </i>
   <i type="logical" name="LHFONE"> F  </i>
   <i type="logical" name="LRHFCALC"> F  </i>
   <i type="logical" name="LTHOMAS"> F  </i>
   <i type="logical" name="LMODELHF"> F  </i>
   <i type="logical" name="LFOCKACE"> T  </i>
   <i name="ENCUT4O">     -1.00000000</i>
   <i type="int" name="EXXOEP">     0</i>
   <i type="int" name="FOURORBIT">     0</i>
   <i name="AEXX">      0.25000000</i>
   <i name="HFALPHA">     -1.00000000</i>
   <i name="MCALPHA">      0.00000000</i>
   <i name="ALDAX">      0.75000000</i>
   <i name="AGGAX">      0.75000000</i>
   <i name="ALDAC">      1.00000000</i>
   <i name="AGGAC">      1.00000000</i>
   <i type="int" name="NKREDX">     3</i>
   <i type="int" name="NKREDY">     3</i>
   <i type="int" name="NKREDZ">     3</i>
   <i type="logical" name="SHIFTRED"> F  </i>
   <i type="logical" name="ODDONLY"> F  </i>
   <i type="logical" name="EVENONLY"> F  </i>
   <i type="int" name="LMAXFOCK">     4</i>
   <i type="int" name="NMAXFOCKAE">     1</i>
   <i type="logical" name="LFOCKAEDFT"> F  </i>
   <i name="HFSCREEN">      0.20000000</i>
   <i name="HFSCREENC">      0.20000000</i>
   <i type="int" name="NBANDSGWLOW">     1</i>
  </separator>
  <separator name="vdW DFT" >
   <i type="logical" name="LUSE_VDW"> F  </i>
   <i name="Zab_VDW">     -0.84910000</i>
   <i name="PARAM1">      0.12340000</i>
   <i name="PARAM2">      1.00000000</i>
   <i name="PARAM3">      0.00000000</i>
  </separator>
  <separator name="model GW" >
   <i type="int" name="MODEL_GW">     0</i>
   <i name="MODEL_EPS0">     13.55375226</i>
   <i name="MODEL_ALPHA">      1.00000000</i>
  </separator>
  <separator name="linear response parameters" >
   <i type="logical" name="LEPSILON"> F  </i>
   <i type="logical" name="LRPA"> F  </i>
   <i type="logical" name="LNABLA"> F  </i>
   <i type="logical" name="LVEL"> F  </i>
   <i name="CSHIFT">      0.10000000</i>
   <i name="OMEGAMAX">     -1.00000000</i>
   <i name="DEG_THRESHOLD">      0.00200000</i>
   <i name="RTIME">     -0.10000000</i>
   <i name="WPLASMAI">      0.00000000</i>
   <v name="DFIELD">      0.00000000      0.00000000      0.00000000</v>
   <v name="WPLASMA">      0.00000000      0.00000000      0.00000000      0.00000000      0.00000000      0.00000000      0.00000000      0.00000000      0.00000000</v>
  </separator>
  <separator name="orbital magnetization" >
   <i type="logical" name="NUCIND"> F  </i>
   <v name="MAGPOS">      0.00000000      0.00000000      0.00000000</v>
   <i type="logical" name="LNICSALL"> T  </i>
   <i type="logical" name="ORBITALMAG"> F  </i>
   <i type="logical" name="LMAGBLOCH"> F  </i>
   <i type="logical" name="LCHIMAG"> F  </i>
   <i type="logical" name="LGAUGE"> T  </i>
   <i type="int" name="MAGATOM">     0</i>
   <v name="MAGDIPOL">      0.00000000      0.00000000      0.00000000</v>
   <v name="AVECCONST">      0.00000000      0.00000000      0.00000000</v>
  </separator>
  <separator name="response functions" >
   <i type="logical" name="LFINITE_TEMPERATURE"> F  </i>
   <i type="logical" name="LADDER"> F  </i>
   <i type="logical" name="LRPAFORCE"> F  </i>
   <i type="logical" name="LFXC"> F  </i>
   <i type="logical" name="LHARTREE"> T  </i>
   <i type="int" name="IBSE">     0</i>
   <v type="int" name="KPOINT">    -1     0     0     0</v>
   <i type="logical" name="LTCTC"> F  </i>
   <i type="logical" name="LTCTE"> F  </i>
   <i type="logical" name="LTETE"> F  </i>
   <i type="logical" name="LTRIPLET"> F  </i>
   <i type="logical" name="LFXCEPS"> F  </i>
   <i type="logical" name="LFXHEG"> F  </i>
   <i type="int" name="NATURALO">     2</i>
   <i type="logical" name="LHOLEGF"> F  </i>
   <i type="logical" name="L2ORDER"> F  </i>
   <i type="logical" name="LDMP1"> F  </i>
   <i type="logical" name="LMP2LT"> F  </i>
   <i type="logical" name="LSMP2LT"> F  </i>
   <i type="logical" name="LGWLF"> F  </i>
   <i name="ENCUTGW">     -2.00000000</i>
   <i name="ENCUTGWSOFT">     -2.00000000</i>
   <i name="ENCUTLF">     -1.00000000</i>
   <i type="logical" name="LESF_SPLINES"> F  </i>
   <i type="int" name="LMAXMP2">    -1</i>
   <i name="SCISSOR">      0.00000000</i>
   <i type="int" name="NOMEGA">     0</i>
   <i type="int" name="NOMEGAR">     0</i>
   <i type="int" name="NBANDSGW">    -1</i>
   <i type="int" name="NBANDSO">    -1</i>
   <i type="int" name="NBANDSV">    -1</i>
   <i type="int" name="NELMGW">     1</i>
   <i type="int" name="NELMHF">     1</i>
   <i type="int" name="DIM">     3</i>
   <i type="int" name="IESPILON">     4</i>
   <i type="int" name="ANTIRES">     0</i>
   <i name="OMEGAMAX">    -30.00000000</i>
   <i name="OMEGAMIN">    -30.00000000</i>
   <i name="OMEGATL">   -200.00000000</i>
   <i type="int" name="OMEGAGRID">     0</i>
   <i name="CSHIFT">      0.10000000</i>
   <i type="logical" name="LSELFENERGY"> F  </i>
   <i type="logical" name="LSPECTRAL"> F  </i>
   <i type="logical" name="LSPECTRALGW"> F  </i>
   <i type="logical" name="LSINGLES"> F  </i>
   <i type="logical" name="LFERMIGW"> F  </i>
   <i type="logical" name="ODDONLYGW"> F  </i>
   <i type="logical" name="EVENONLYGW"> F  </i>
   <i type="int" name="NKREDLFX">     1</i>
   <i type="int" name="NKREDLFY">     1</i>
   <i type="int" name="NKREDLFZ">     1</i>
   <i type="int" name="MAXMEM">  2800</i>
   <i type="int" name="TELESCOPE">     0</i>
   <i type="int" name="NTAUPAR">    -1</i>
   <i type="int" name="NOMEGAPAR">    -1</i>
   <i name="DAMP_NEWTON">      0.80000001</i>
   <i name="LAMBDA">      1.00000000</i>
  </separator>
  <separator name="External order field" >
   <i name="OFIELD_KAPPA">      0.00000000</i>
   <v name="OFIELD_K">      0.00000000      0.00000000      0.00000000</v>
   <i name="OFIELD_Q6_NEAR">      0.00000000</i>
   <i name="OFIELD_Q6_FAR">      0.00000000</i>
   <i name="OFIELD_A">      0.00000000</i>
  </separator>
  <separator name="optional k-points parameters" >
   <i type="int" name="KPOINTS_OPT_MODE">     1</i>
   <i type="logical" name="LKPOINTS_OPT"> F  </i>
  </separator>
 </parameters>
 <atominfo>
  <atoms>       2 </atoms>
  <types>       2 </types>
  <array name="atoms" >
   <dimension dim="1">ion</dimension>
   <field type="string">element</field>
   <field type="int">atomtype</field>
   <set>
    <rc><c>As</c><c>   1</c></rc>
    <rc><c>Ga</c><c>   2</c></rc>
   </set>
  </array>
  <array name="atomtypes" >
   <dimension dim="1">type</dimension>
   <field type="int">atomspertype</field>
   <field type="string">element</field>
   <field>mass</field>
   <field>valence</field>
   <field type="string">pseudopotential</field>
   <set>
    <rc><c>   1</c><c>As</c><c>     74.92200000</c><c>      5.00000000</c><c> PAW_PBE As 06Sep2000                   </c></rc>
    <rc><c>   1</c><c>Ga</c><c>     69.72300000</c><c>     13.00000000</c><c> PAW_PBE Ga_d 06Sep2000                 </c></rc>
   </set>
  </array>
 </atominfo>
 <structure name="initialpos" >
  <crystal>
   <varray name="basis" >
    <v>       0.00000000       2.82685000       2.82685000 </v>
    <v>       2.82685000       0.00000000       2.82685000 </v>
    <v>       2.82685000       2.82685000       0.00000000 </v>
   </varray>
   <i name="volume">     45.17917421 </i>
   <varray name="rec_basis" >
    <v>      -0.17687532       0.17687532       0.17687532 </v>
    <v>       0.17687532      -0.17687532       0.17687532 </v>
    <v>       0.17687532       0.17687532      -0.17687532 </v>
   </varray>
  </crystal>
  <varray name="positions" >
   <v>       0.25000000       0.25000000       0.25000000 </v>
   <v>       0.00000000       0.00000000       0.00000000 </v>
  </varray>
 </structure>
 <calculation>
  <scstep>
   <time name="diag">  624.62  624.65</time>
   <time name="total">  624.75  624.78</time>
   <energy>
    <i name="alphaZ">     75.59130634 </i>
    <i name="ewald">  -1265.47954883 </i>
    <i name="hartreedc">   -721.86433067 </i>
    <i name="XCdc">     38.35451164 </i>
    <i name="pawpsdc">   1570.68769674 </i>
    <i name="pawaedc">  -1894.19893708 </i>
    <i name="eentropy">     -0.00000000 </i>
    <i name="bandstr">   -170.71351446 </i>
    <i name="atom">   2314.66249038 </i>
    <i name="e_fr_energy">    -10.86442405 </i>
    <i name="e_wo_entrp">    -10.86442405 </i>
    <i name="e_0_energy">    -10.86442405 </i>
   </energy>
  </scstep>
  <scstep>
   <time name="diag">  625.19  625.22</time>
   <time name="total">  625.33  625.37</time>
   <energy>
    <i name="e_fr_energy">    -10.86442407 </i>
    <i name="e_wo_entrp">    -10.86442407 </i>
    <i name="e_0_energy">    -10.86442407 </i>
   </energy>
  </scstep>
  <scstep>
   <time name="diag">  625.39  625.42</time>
   <time name="total">  625.53  625.56</time>
   <energy>
    <i name="e_fr_energy">    -10.86442407 </i>
    <i name="e_wo_entrp">    -10.86442407 </i>
    <i name="e_0_energy">    -10.86442407 </i>
   </energy>
  </scstep>
  <scstep>
   <time name="diag">  626.60  626.63</time>
   <time name="total">  626.67  626.70</time>
   <energy>
    <i name="alphaZ">     75.59130634 </i>
    <i name="ewald">  -1265.47954883 </i>
    <i name="hartreedc">   -721.86317923 </i>
    <i name="XCdc">     38.35449996 </i>
    <i name="pawpsdc">   1570.68216942 </i>
    <i name="pawaedc">  -1894.19268298 </i>
    <i name="eentropy">     -0.00000000 </i>
    <i name="bandstr">   -170.71547971 </i>
    <i name="atom">   2314.66249038 </i>
    <i name="e_fr_energy">    -10.86442407 </i>
    <i name="e_wo_entrp">    -10.86442407 </i>
    <i name="e_0_energy">    -10.86442407 </i>
   </energy>
  </scstep>
  <structure>
   <crystal>
    <varray name="basis" >
     <v>       0.00000000       2.82685000       2.82685000 </v>
     <v>       2.82685000       0.00000000       2.82685000 </v>
     <v>       2.82685000       2.82685000       0.00000000 </v>
    </varray>
    <i name="volume">     45.17917421 </i>
    <varray name="rec_basis" >
     <v>      -0.17687532       0.17687532       0.17687532 </v>
     <v>       0.17687532      -0.17687532       0.17687532 </v>
     <v>       0.17687532       0.17687532      -0.17687532 </v>
    </varray>
   </crystal>
   <varray name="positions" >
    <v>       0.25000000       0.25000000       0.25000000 </v>
    <v>       0.00000000       0.00000000       0.00000000 </v>
   </varray>
  </structure>
  <varray name="forces" >
   <v>      -0.00000000      -0.00000000      -0.00000000 </v>
   <v>       0.00000000       0.00000000       0.00000000 </v>
  </varray>
  <energy>
   <i name="e_fr_energy">    -10.86442407 </i>
   <i name="e_wo_entrp">    -10.86442407 </i>
   <i name="e_0_energy">    -10.86442407 </i>
  </energy>
  <time name="totalsc"> 2513.37 2513.58</time>
  <eigenvalues>
   <array>
    <dimension dim="1">band</dimension>
    <dimension dim="2">kpoint</dimension>
    <dimension dim="3">spin</dimension>
    <field>eigene</field>
    <field>occ</field>
    <set>
     <set comment="spin 1">
      <set comment="kpoint 1">
       <r>  -14.6624    1.0000 </r>
       <r>  -14.6624    1.0000 </r>
       <r>  -14.6624    1.0000 </r>
       <r>  -14.5815    1.0000 </r>
       <r>  -14.5815    1.0000 </r>
       <r>  -11.2589    1.0000 </r>
       <r>    2.6781    1.0000 </r>
       <r>    2.6781    1.0000 </r>
       <r>    2.6781    1.0000 </r>
       <r>    4.1572    0.0000 </r>
       <r>    7.2116    0.0000 </r>
       <r>    7.2116    0.0000 </r>
       <r>    7.2117    0.0000 </r>
       <r>   11.2729    0.0000 </r>
       <r>   13.7317    0.0000 </r>
       <r>   13.7317    0.0000 </r>
       <r>   15.2382    0.0000 </r>
       <r>   15.2382    0.0000 </r>
       <r>   15.2382    0.0000 </r>
       <r>   18.1214    0.0000 </r>
       <r>   29.6772    0.0000 </r>
       <r>   29.6772    0.0000 </r>
       <r>   29.6772    0.0000 </r>
       <r>   30.5022    0.0000 </r>
       <r>   30.5022    0.0000 </r>
       <r>   30.5022    0.0000 </r>
       <r>   31.1377    0.0000 </r>
       <r>   31.1378    0.0000 </r>
       <r>   31.1378    0.0000 </r>
       <r>   31.6594    0.0000 </r>
       <r>   31.6594    0.0000 </r>
       <r>   39.1211    0.0000 </r>
       <r>   42.8230    0.0000 </r>
       <r>   42.8230    0.0000 </r>
       <r>   43.4076    0.0000 </r>
       <r>   43.4076    0.0000 </r>
       <r>   43.4076    0.0000 </r>
       <r>   44.6579    0.0000 </r>
       <r>   44.6694    0.0000 </r>
       <r>   44.6694    0.0000 </r>
       <r>   44.6694    0.0000 </r>
       <r>   45.3914    0.0000 </r>
       <r>   45.3914    0.0000 </r>
       <r>   45.3914    0.0000 </r>
       <r>   45.8716    0.0000 </r>
       <r>   45.8718    0.0000 </r>
       <r>   45.8718    0.0000 </r>
       <r>   46.7718    0.0000 </r>
       <r>   46.7719    0.0000 </r>
       <r>   46.7719    0.0000 </r>
       <r>   47.2736    0.0000 </r>
       <r>   47.2736    0.0000 </r>
       <r>   47.2737    0.0000 </r>
       <r>   48.9158    0.0000 </r>
       <r>   48.9158    0.0000 </r>
       <r>   50.4799    0.0000 </r>
       <r>   53.0689    0.0000 </r>
       <r>   53.0689    0.0000 </r>
       <r>   53.0689    0.0000 </r>
       <r>   53.5096    0.0000 </r>
       <r>   53.5097    0.0000 </r>
       <r>   53.5097    0.0000 </r>
       <r>   55.5958    0.0000 </r>
       <r>   58.9880    0.0000 </r>
       <r>   68.2371    0.0000 </r>
       <r>   68.2371    0.0000 </r>
       <r>   68.9276    0.0000 </r>
       <r>   68.9277    0.0000 </r>
       <r>   68.9277    0.0000 </r>
       <r>   71.3324    0.0000 </r>
       <r>   73.7980    0.0000 </r>
       <r>   73.7980    0.0000 </r>
      </set>
      <set comment="kpoint 2">
       <r>  -14.6644    1.0000 </r>
       <r>  -14.6617    1.0000 </r>
       <r>  -14.6617    1.0000 </r>
       <r>  -14.5819    1.0000 </r>
       <r>  -14.5819    1.0000 </r>
       <r>  -11.2015    1.0000 </r>
       <r>    1.8813    1.0000 </r>
       <r>    2.6037    1.0000 </r>
       <r>    2.6037    1.0000 </r>
       <r>    4.7239    0.0000 </r>
       <r>    7.2955    0.0000 </r>
       <r>    7.3240    0.0000 </r>
       <r>    7.3240    0.0000 </r>
       <r>   11.5929    0.0000 </r>
       <r>   13.3217    0.0000 </r>
       <r>   13.3217    0.0000 </r>
       <r>   14.9358    0.0000 </r>
       <r>   15.8458    0.0000 </r>
       <r>   15.8458    0.0000 </r>
       <r>   18.6229    0.0000 </r>
       <r>   28.2179    0.0000 </r>
       <r>   28.3515    0.0000 </r>
       <r>   28.3516    0.0000 </r>
       <r>   30.3726    0.0000 </r>
       <r>   30.3726    0.0000 </r>
       <r>   31.0325    0.0000 </r>
       <r>   31.0325    0.0000 </r>
       <r>   31.1862    0.0000 </r>
       <r>   31.7482    0.0000 </r>
       <r>   33.3928    0.0000 </r>
       <r>   33.3928    0.0000 </r>
       <r>   39.2455    0.0000 </r>
       <r>   41.5586    0.0000 </r>
       <r>   41.5586    0.0000 </r>
       <r>   41.9360    0.0000 </r>
       <r>   42.8081    0.0000 </r>
       <r>   42.8081    0.0000 </r>
       <r>   43.8146    0.0000 </r>
       <r>   44.1679    0.0000 </r>
       <r>   44.1679    0.0000 </r>
       <r>   44.6825    0.0000 </r>
       <r>   44.9873    0.0000 </r>
       <r>   45.3600    0.0000 </r>
       <r>   45.3600    0.0000 </r>
       <r>   46.1318    0.0000 </r>
       <r>   46.1318    0.0000 </r>
       <r>   46.3593    0.0000 </r>
       <r>   46.9041    0.0000 </r>
       <r>   46.9041    0.0000 </r>
       <r>   47.3699    0.0000 </r>
       <r>   48.2152    0.0000 </r>
       <r>   48.2152    0.0000 </r>
       <r>   48.5985    0.0000 </r>
       <r>   49.9306    0.0000 </r>
       <r>   50.2607    0.0000 </r>
       <r>   50.2607    0.0000 </r>
       <r>   51.5815    0.0000 </r>
       <r>   52.2896    0.0000 </r>
       <r>   52.2896    0.0000 </r>
       <r>   54.6366    0.0000 </r>
       <r>   54.6366    0.0000 </r>
       <r>   54.7585    0.0000 </r>
       <r>   56.9824    0.0000 </r>
       <r>   59.5741    0.0000 </r>
       <r>   66.4286    0.0000 </r>
       <r>   66.4286    0.0000 </r>
       <r>   67.5072    0.0000 </r>
       <r>   70.4262    0.0000 </r>
       <r>   70.4262    0.0000 </r>
       <r>   72.3291    0.0000 </r>
       <r>   72.3293    0.0000 </r>
       <r>   72.6297    0.0000 </r>
      </set>
      <set comment="kpoint 3">
       <r>  -14.6711    1.0000 </r>
       <r>  -14.6590    1.0000 </r>
       <r>  -14.6590    1.0000 </r>
       <r>  -14.5820    1.0000 </r>
       <r>  -14.5820    1.0000 </r>
       <r>  -11.0369    1.0000 </r>
       <r>    0.5969    1.0000 </r>
       <r>    2.4057    1.0000 </r>
       <r>    2.4057    1.0000 </r>
       <r>    5.1546    0.0000 </r>
       <r>    7.6172    0.0000 </r>
       <r>    7.6172    0.0000 </r>
       <r>    7.7814    0.0000 </r>
       <r>   12.3459    0.0000 </r>
       <r>   12.7791    0.0000 </r>
       <r>   12.7791    0.0000 </r>
       <r>   14.4917    0.0000 </r>
       <r>   17.0130    0.0000 </r>
       <r>   17.0130    0.0000 </r>
       <r>   19.7701    0.0000 </r>
       <r>   26.2879    0.0000 </r>
       <r>   26.2879    0.0000 </r>
       <r>   26.3382    0.0000 </r>
       <r>   30.5015    0.0000 </r>
       <r>   30.5015    0.0000 </r>
       <r>   31.1436    0.0000 </r>
       <r>   31.1436    0.0000 </r>
       <r>   31.3296    0.0000 </r>
       <r>   32.9598    0.0000 </r>
       <r>   35.6709    0.0000 </r>
       <r>   35.6710    0.0000 </r>
       <r>   38.6333    0.0000 </r>
       <r>   39.4482    0.0000 </r>
       <r>   39.4482    0.0000 </r>
       <r>   40.7254    0.0000 </r>
       <r>   41.6380    0.0000 </r>
       <r>   41.6380    0.0000 </r>
       <r>   42.6845    0.0000 </r>
       <r>   42.6846    0.0000 </r>
       <r>   43.0134    0.0000 </r>
       <r>   43.1311    0.0000 </r>
       <r>   44.8127    0.0000 </r>
       <r>   45.1713    0.0000 </r>
       <r>   45.1713    0.0000 </r>
       <r>   46.1236    0.0000 </r>
       <r>   46.5740    0.0000 </r>
       <r>   46.5740    0.0000 </r>
       <r>   47.7780    0.0000 </r>
       <r>   48.3511    0.0000 </r>
       <r>   48.3511    0.0000 </r>
       <r>   49.4993    0.0000 </r>
       <r>   49.4993    0.0000 </r>
       <r>   49.5146    0.0000 </r>
       <r>   50.5628    0.0000 </r>
       <r>   51.6113    0.0000 </r>
       <r>   51.6113    0.0000 </r>
       <r>   52.3137    0.0000 </r>
       <r>   53.1159    0.0000 </r>
       <r>   53.1159    0.0000 </r>
       <r>   55.5043    0.0000 </r>
       <r>   56.2006    0.0000 </r>
       <r>   56.2007    0.0000 </r>
       <r>   59.0320    0.0000 </r>
       <r>   61.6948    0.0000 </r>
       <r>   64.3639    0.0000 </r>
       <r>   64.3639    0.0000 </r>
       <r>   65.4454    0.0000 </r>
       <r>   68.9216    0.0000 </r>
       <r>   68.9217    0.0000 </r>
       <r>   71.7565    0.0000 </r>
       <r>   73.0598    0.0000 </r>
       <r>   73.0600    0.0000 </r>
      </set>
      <set comment="kpoint 4">
       <r>  -14.6814    1.0000 </r>
       <r>  -14.6551    1.0000 </r>
       <r>  -14.6550    1.0000 </r>
       <r>  -14.5816    1.0000 </r>
       <r>  -14.5816    1.0000 </r>
       <r>  -10.7683    1.0000 </r>
       <r>   -0.7590    1.0000 </r>
       <r>    2.1460    1.0000 </r>
       <r>    2.1460    1.0000 </r>
       <r>    5.1149    0.0000 </r>
       <r>    7.9532    0.0000 </r>
       <r>    7.9533    0.0000 </r>
       <r>    8.7647    0.0000 </r>
       <r>   12.5181    0.0000 </r>
       <r>   12.5181    0.0000 </r>
       <r>   12.7556    0.0000 </r>
       <r>   14.8189    0.0000 </r>
       <r>   18.4018    0.0000 </r>
       <r>   18.4018    0.0000 </r>
       <r>   21.2242    0.0000 </r>
       <r>   24.2495    0.0000 </r>
       <r>   24.2495    0.0000 </r>
       <r>   24.4632    0.0000 </r>
       <r>   30.7416    0.0000 </r>
       <r>   30.7416    0.0000 </r>
       <r>   31.3366    0.0000 </r>
       <r>   31.3367    0.0000 </r>
       <r>   31.5601    0.0000 </r>
       <r>   33.6027    0.0000 </r>
       <r>   36.5484    0.0000 </r>
       <r>   36.5484    0.0000 </r>
       <r>   36.6485    0.0000 </r>
       <r>   38.5410    0.0000 </r>
       <r>   38.5411    0.0000 </r>
       <r>   40.4841    0.0000 </r>
       <r>   40.4841    0.0000 </r>
       <r>   40.7273    0.0000 </r>
       <r>   41.3505    0.0000 </r>
       <r>   41.3506    0.0000 </r>
       <r>   41.6933    0.0000 </r>
       <r>   41.9620    0.0000 </r>
       <r>   44.4110    0.0000 </r>
       <r>   44.9553    0.0000 </r>
       <r>   44.9554    0.0000 </r>
       <r>   45.4312    0.0000 </r>
       <r>   46.8170    0.0000 </r>
       <r>   46.8170    0.0000 </r>
       <r>   47.2304    0.0000 </r>
       <r>   49.8765    0.0000 </r>
       <r>   49.8765    0.0000 </r>
       <r>   50.4818    0.0000 </r>
       <r>   50.4819    0.0000 </r>
       <r>   51.0350    0.0000 </r>
       <r>   52.5536    0.0000 </r>
       <r>   52.5536    0.0000 </r>
       <r>   52.6981    0.0000 </r>
       <r>   53.6842    0.0000 </r>
       <r>   55.9209    0.0000 </r>
       <r>   55.9210    0.0000 </r>
       <r>   56.7550    0.0000 </r>
       <r>   58.0334    0.0000 </r>
       <r>   58.0334    0.0000 </r>
       <r>   60.6612    0.0000 </r>
       <r>   62.3940    0.0000 </r>
       <r>   62.3940    0.0000 </r>
       <r>   63.3346    0.0000 </r>
       <r>   65.0183    0.0000 </r>
       <r>   66.0867    0.0000 </r>
       <r>   66.0868    0.0000 </r>
       <r>   69.9762    0.0000 </r>
       <r>   72.4941    0.0000 </r>
       <r>   72.4942    0.0000 </r>
      </set>
      <set comment="kpoint 5">
       <r>  -14.6919    1.0000 </r>
       <r>  -14.6513    1.0000 </r>
       <r>  -14.6513    1.0000 </r>
       <r>  -14.5816    1.0000 </r>
       <r>  -14.5816    1.0000 </r>
       <r>  -10.4117    1.0000 </r>
       <r>   -2.0188    1.0000 </r>
       <r>    1.8926    1.0000 </r>
       <r>    1.8926    1.0000 </r>
       <r>    4.9115    0.0000 </r>
       <r>    8.1644    0.0000 </r>
       <r>    8.1644    0.0000 </r>
       <r>    9.9326    0.0000 </r>
       <r>   12.5301    0.0000 </r>
       <r>   12.6851    0.0000 </r>
       <r>   12.6851    0.0000 </r>
       <r>   16.1232    0.0000 </r>
       <r>   19.9223    0.0000 </r>
       <r>   19.9223    0.0000 </r>
       <r>   22.3279    0.0000 </r>
       <r>   22.3279    0.0000 </r>
       <r>   22.4755    0.0000 </r>
       <r>   23.1249    0.0000 </r>
       <r>   31.0490    0.0000 </r>
       <r>   31.0490    0.0000 </r>
       <r>   31.5718    0.0000 </r>
       <r>   31.5719    0.0000 </r>
       <r>   31.8595    0.0000 </r>
       <r>   32.7829    0.0000 </r>
       <r>   34.4379    0.0000 </r>
       <r>   34.4379    0.0000 </r>
       <r>   35.6294    0.0000 </r>
       <r>   39.0648    0.0000 </r>
       <r>   39.0648    0.0000 </r>
       <r>   39.1855    0.0000 </r>
       <r>   39.6168    0.0000 </r>
       <r>   39.6168    0.0000 </r>
       <r>   40.4159    0.0000 </r>
       <r>   41.1258    0.0000 </r>
       <r>   41.6520    0.0000 </r>
       <r>   41.6521    0.0000 </r>
       <r>   44.1603    0.0000 </r>
       <r>   44.8349    0.0000 </r>
       <r>   44.8349    0.0000 </r>
       <r>   45.8960    0.0000 </r>
       <r>   46.7232    0.0000 </r>
       <r>   46.7233    0.0000 </r>
       <r>   47.4238    0.0000 </r>
       <r>   50.5713    0.0000 </r>
       <r>   50.5713    0.0000 </r>
       <r>   52.0962    0.0000 </r>
       <r>   52.2084    0.0000 </r>
       <r>   52.2084    0.0000 </r>
       <r>   54.3539    0.0000 </r>
       <r>   54.3539    0.0000 </r>
       <r>   54.9685    0.0000 </r>
       <r>   55.3249    0.0000 </r>
       <r>   58.3950    0.0000 </r>
       <r>   58.6115    0.0000 </r>
       <r>   58.6115    0.0000 </r>
       <r>   60.2416    0.0000 </r>
       <r>   60.2416    0.0000 </r>
       <r>   60.6217    0.0000 </r>
       <r>   60.6217    0.0000 </r>
       <r>   61.2840    0.0000 </r>
       <r>   62.7420    0.0000 </r>
       <r>   63.2282    0.0000 </r>
       <r>   63.2283    0.0000 </r>
       <r>   66.8769    0.0000 </r>
       <r>   69.6552    0.0000 </r>
       <r>   69.7507    0.0000 </r>
       <r>   69.7508    0.0000 </r>
      </set>
      <set comment="kpoint 6">
       <r>  -14.7021    1.0000 </r>
       <r>  -14.6479    1.0000 </r>
       <r>  -14.6479    1.0000 </r>
       <r>  -14.5808    1.0000 </r>
       <r>  -14.5808    1.0000 </r>
       <r>  -10.0123    1.0000 </r>
       <r>   -3.0999    1.0000 </r>
       <r>    1.6832    1.0000 </r>
       <r>    1.6832    1.0000 </r>
       <r>    4.7104    0.0000 </r>
       <r>    8.2135    0.0000 </r>
       <r>    8.2135    0.0000 </r>
       <r>   10.9686    0.0000 </r>
       <r>   12.4168    0.0000 </r>
       <r>   13.2990    0.0000 </r>
       <r>   13.2990    0.0000 </r>
       <r>   17.4757    0.0000 </r>
       <r>   20.3404    0.0000 </r>
       <r>   20.3404    0.0000 </r>
       <r>   21.3321    0.0000 </r>
       <r>   21.7619    0.0000 </r>
       <r>   21.7619    0.0000 </r>
       <r>   24.7752    0.0000 </r>
       <r>   30.6680    0.0000 </r>
       <r>   31.2508    0.0000 </r>
       <r>   31.2509    0.0000 </r>
       <r>   31.6140    0.0000 </r>
       <r>   31.6140    0.0000 </r>
       <r>   32.1956    0.0000 </r>
       <r>   32.5529    0.0000 </r>
       <r>   32.5529    0.0000 </r>
       <r>   35.4284    0.0000 </r>
       <r>   37.2414    0.0000 </r>
       <r>   38.2092    0.0000 </r>
       <r>   38.2092    0.0000 </r>
       <r>   38.6788    0.0000 </r>
       <r>   38.6788    0.0000 </r>
       <r>   39.3456    0.0000 </r>
       <r>   40.3278    0.0000 </r>
       <r>   43.8591    0.0000 </r>
       <r>   43.8686    0.0000 </r>
       <r>   43.8686    0.0000 </r>
       <r>   44.9410    0.0000 </r>
       <r>   44.9410    0.0000 </r>
       <r>   46.4570    0.0000 </r>
       <r>   46.4570    0.0000 </r>
       <r>   47.0577    0.0000 </r>
       <r>   48.1752    0.0000 </r>
       <r>   51.3675    0.0000 </r>
       <r>   51.3675    0.0000 </r>
       <r>   53.0536    0.0000 </r>
       <r>   54.1739    0.0000 </r>
       <r>   54.1739    0.0000 </r>
       <r>   56.1947    0.0000 </r>
       <r>   56.1948    0.0000 </r>
       <r>   56.6558    0.0000 </r>
       <r>   57.3621    0.0000 </r>
       <r>   58.8722    0.0000 </r>
       <r>   58.8722    0.0000 </r>
       <r>   59.1438    0.0000 </r>
       <r>   59.8741    0.0000 </r>
       <r>   59.8742    0.0000 </r>
       <r>   61.1921    0.0000 </r>
       <r>   61.4777    0.0000 </r>
       <r>   61.4777    0.0000 </r>
       <r>   63.3549    0.0000 </r>
       <r>   63.3549    0.0000 </r>
       <r>   63.4488    0.0000 </r>
       <r>   66.4573    0.0000 </r>
       <r>   67.1439    0.0000 </r>
       <r>   67.1440    0.0000 </r>
       <r>   70.2393    0.0000 </r>
      </set>
      <set comment="kpoint 7">
       <r>  -14.7105    1.0000 </r>
       <r>  -14.6454    1.0000 </r>
       <r>  -14.6454    1.0000 </r>
       <r>  -14.5796    1.0000 </r>
       <r>  -14.5796    1.0000 </r>
       <r>   -9.6248    1.0000 </r>
       <r>   -3.9681    1.0000 </r>
       <r>    1.5322    1.0000 </r>
       <r>    1.5322    1.0000 </r>
       <r>    4.5604    0.0000 </r>
       <r>    8.1770    0.0000 </r>
       <r>    8.1770    0.0000 </r>
       <r>   11.3536    0.0000 </r>
       <r>   13.0814    0.0000 </r>
       <r>   14.2644    0.0000 </r>
       <r>   14.2644    0.0000 </r>
       <r>   17.6391    0.0000 </r>
       <r>   18.7078    0.0000 </r>
       <r>   18.7078    0.0000 </r>
       <r>   21.5131    0.0000 </r>
       <r>   23.5052    0.0000 </r>
       <r>   23.5052    0.0000 </r>
       <r>   26.5676    0.0000 </r>
       <r>   28.5573    0.0000 </r>
       <r>   29.6128    0.0000 </r>
       <r>   29.6128    0.0000 </r>
       <r>   31.7550    0.0000 </r>
       <r>   31.7550    0.0000 </r>
       <r>   32.4337    0.0000 </r>
       <r>   32.4337    0.0000 </r>
       <r>   32.5094    0.0000 </r>
       <r>   33.7319    0.0000 </r>
       <r>   36.9208    0.0000 </r>
       <r>   37.4450    0.0000 </r>
       <r>   37.4450    0.0000 </r>
       <r>   37.9388    0.0000 </r>
       <r>   37.9388    0.0000 </r>
       <r>   38.5414    0.0000 </r>
       <r>   39.5675    0.0000 </r>
       <r>   43.6440    0.0000 </r>
       <r>   44.6538    0.0000 </r>
       <r>   44.6538    0.0000 </r>
       <r>   45.7846    0.0000 </r>
       <r>   45.7846    0.0000 </r>
       <r>   47.1591    0.0000 </r>
       <r>   47.1591    0.0000 </r>
       <r>   47.3452    0.0000 </r>
       <r>   50.1061    0.0000 </r>
       <r>   52.3268    0.0000 </r>
       <r>   52.3268    0.0000 </r>
       <r>   54.0248    0.0000 </r>
       <r>   55.6441    0.0000 </r>
       <r>   55.6442    0.0000 </r>
       <r>   56.2438    0.0000 </r>
       <r>   56.5874    0.0000 </r>
       <r>   56.5874    0.0000 </r>
       <r>   57.3905    0.0000 </r>
       <r>   57.3906    0.0000 </r>
       <r>   59.4657    0.0000 </r>
       <r>   59.5814    0.0000 </r>
       <r>   59.5814    0.0000 </r>
       <r>   59.8714    0.0000 </r>
       <r>   61.9111    0.0000 </r>
       <r>   63.2023    0.0000 </r>
       <r>   63.2800    0.0000 </r>
       <r>   63.2800    0.0000 </r>
       <r>   64.6043    0.0000 </r>
       <r>   64.6043    0.0000 </r>
       <r>   66.3631    0.0000 </r>
       <r>   66.3632    0.0000 </r>
       <r>   67.8832    0.0000 </r>
       <r>   68.0290    0.0000 </r>
      </set>
      <set comment="kpoint 8">
       <r>  -14.7143    1.0000 </r>
       <r>  -14.6444    1.0000 </r>
       <r>  -14.6444    1.0000 </r>
       <r>  -14.5793    1.0000 </r>
       <r>  -14.5793    1.0000 </r>
       <r>   -9.3640    1.0000 </r>
       <r>   -4.4676    1.0000 </r>
       <r>    1.4540    1.0000 </r>
       <r>    1.4540    1.0000 </r>
       <r>    4.4840    0.0000 </r>
       <r>    8.1335    0.0000 </r>
       <r>    8.1335    0.0000 </r>
       <r>   11.3408    0.0000 </r>
       <r>   14.0876    0.0000 </r>
       <r>   15.3829    0.0000 </r>
       <r>   15.3829    0.0000 </r>
       <r>   16.7674    0.0000 </r>
       <r>   17.2516    0.0000 </r>
       <r>   17.2517    0.0000 </r>
       <r>   22.9727    0.0000 </r>
       <r>   25.3944    0.0000 </r>
       <r>   25.3944    0.0000 </r>
       <r>   26.0014    0.0000 </r>
       <r>   27.5449    0.0000 </r>
       <r>   27.5449    0.0000 </r>
       <r>   29.1891    0.0000 </r>
       <r>   31.4548    0.0000 </r>
       <r>   31.9333    0.0000 </r>
       <r>   31.9333    0.0000 </r>
       <r>   32.6170    0.0000 </r>
       <r>   32.6170    0.0000 </r>
       <r>   32.7102    0.0000 </r>
       <r>   36.9871    0.0000 </r>
       <r>   36.9871    0.0000 </r>
       <r>   37.2160    0.0000 </r>
       <r>   37.5405    0.0000 </r>
       <r>   37.5405    0.0000 </r>
       <r>   38.0944    0.0000 </r>
       <r>   39.0236    0.0000 </r>
       <r>   43.5368    0.0000 </r>
       <r>   44.7659    0.0000 </r>
       <r>   44.7659    0.0000 </r>
       <r>   45.6626    0.0000 </r>
       <r>   45.6626    0.0000 </r>
       <r>   47.4069    0.0000 </r>
       <r>   49.4150    0.0000 </r>
       <r>   49.4151    0.0000 </r>
       <r>   52.2392    0.0000 </r>
       <r>   52.8584    0.0000 </r>
       <r>   52.8585    0.0000 </r>
       <r>   54.1501    0.0000 </r>
       <r>   54.4442    0.0000 </r>
       <r>   54.4442    0.0000 </r>
       <r>   55.2634    0.0000 </r>
       <r>   55.6737    0.0000 </r>
       <r>   55.6737    0.0000 </r>
       <r>   58.2440    0.0000 </r>
       <r>   58.2440    0.0000 </r>
       <r>   59.6822    0.0000 </r>
       <r>   61.3954    0.0000 </r>
       <r>   61.3954    0.0000 </r>
       <r>   61.4091    0.0000 </r>
       <r>   62.4592    0.0000 </r>
       <r>   62.4761    0.0000 </r>
       <r>   62.4761    0.0000 </r>
       <r>   64.4278    0.0000 </r>
       <r>   64.4279    0.0000 </r>
       <r>   64.5722    0.0000 </r>
       <r>   65.2991    0.0000 </r>
       <r>   66.3168    0.0000 </r>
       <r>   66.3168    0.0000 </r>
       <r>   67.7644    0.0000 </r>
      </set>
      <set comment="kpoint 9">
       <r>  -14.6665    1.0000 </r>
       <r>  -14.6606    1.0000 </r>
       <r>  -14.6606    1.0000 </r>
       <r>  -14.5823    1.0000 </r>
       <r>  -14.5816    1.0000 </r>
       <r>  -11.1824    1.0000 </r>
       <r>    1.8584    1.0000 </r>
       <r>    2.4529    1.0000 </r>
       <r>    2.4530    1.0000 </r>
       <r>    4.9694    0.0000 </r>
       <r>    6.9527    0.0000 </r>
       <r>    7.5298    0.0000 </r>
       <r>    7.5298    0.0000 </r>
       <r>   11.6873    0.0000 </r>
       <r>   12.7393    0.0000 </r>
       <r>   13.8049    0.0000 </r>
       <r>   15.3904    0.0000 </r>
       <r>   15.3904    0.0000 </r>
       <r>   15.9085    0.0000 </r>
       <r>   18.8574    0.0000 </r>
       <r>   27.9255    0.0000 </r>
       <r>   27.9255    0.0000 </r>
       <r>   28.8923    0.0000 </r>
       <r>   29.1772    0.0000 </r>
       <r>   30.2381    0.0000 </r>
       <r>   30.7266    0.0000 </r>
       <r>   30.7266    0.0000 </r>
       <r>   32.4873    0.0000 </r>
       <r>   32.8404    0.0000 </r>
       <r>   32.8405    0.0000 </r>
       <r>   33.7356    0.0000 </r>
       <r>   39.2589    0.0000 </r>
       <r>   40.8335    0.0000 </r>
       <r>   41.6355    0.0000 </r>
       <r>   41.6355    0.0000 </r>
       <r>   42.5622    0.0000 </r>
       <r>   42.8116    0.0000 </r>
       <r>   43.6518    0.0000 </r>
       <r>   43.6519    0.0000 </r>
       <r>   44.1012    0.0000 </r>
       <r>   44.8925    0.0000 </r>
       <r>   44.8925    0.0000 </r>
       <r>   44.9667    0.0000 </r>
       <r>   45.7498    0.0000 </r>
       <r>   45.8544    0.0000 </r>
       <r>   46.3974    0.0000 </r>
       <r>   46.3974    0.0000 </r>
       <r>   46.9243    0.0000 </r>
       <r>   47.3169    0.0000 </r>
       <r>   47.6580    0.0000 </r>
       <r>   47.6580    0.0000 </r>
       <r>   49.4568    0.0000 </r>
       <r>   49.4568    0.0000 </r>
       <r>   49.5058    0.0000 </r>
       <r>   49.7438    0.0000 </r>
       <r>   51.1043    0.0000 </r>
       <r>   51.1043    0.0000 </r>
       <r>   51.3682    0.0000 </r>
       <r>   52.7501    0.0000 </r>
       <r>   53.6391    0.0000 </r>
       <r>   55.8401    0.0000 </r>
       <r>   55.8401    0.0000 </r>
       <r>   56.9121    0.0000 </r>
       <r>   59.6704    0.0000 </r>
       <r>   64.5637    0.0000 </r>
       <r>   68.0984    0.0000 </r>
       <r>   68.9140    0.0000 </r>
       <r>   68.9141    0.0000 </r>
       <r>   69.9623    0.0000 </r>
       <r>   71.8905    0.0000 </r>
       <r>   71.8907    0.0000 </r>
       <r>   73.2605    0.0000 </r>
      </set>
      <set comment="kpoint 10">
       <r>  -14.6723    1.0000 </r>
       <r>  -14.6582    1.0000 </r>
       <r>  -14.6581    1.0000 </r>
       <r>  -14.5833    1.0000 </r>
       <r>  -14.5812    1.0000 </r>
       <r>  -11.0535    1.0000 </r>
       <r>    0.8759    1.0000 </r>
       <r>    2.2034    1.0000 </r>
       <r>    2.3160    1.0000 </r>
       <r>    5.4777    0.0000 </r>
       <r>    6.8906    0.0000 </r>
       <r>    7.8946    0.0000 </r>
       <r>    7.9678    0.0000 </r>
       <r>   12.0413    0.0000 </r>
       <r>   12.3892    0.0000 </r>
       <r>   13.5352    0.0000 </r>
       <r>   15.0413    0.0000 </r>
       <r>   16.1054    0.0000 </r>
       <r>   16.8941    0.0000 </r>
       <r>   19.8584    0.0000 </r>
       <r>   26.1981    0.0000 </r>
       <r>   26.2689    0.0000 </r>
       <r>   28.1000    0.0000 </r>
       <r>   28.8396    0.0000 </r>
       <r>   29.2768    0.0000 </r>
       <r>   30.8621    0.0000 </r>
       <r>   31.6187    0.0000 </r>
       <r>   33.1878    0.0000 </r>
       <r>   33.2751    0.0000 </r>
       <r>   34.5146    0.0000 </r>
       <r>   35.6967    0.0000 </r>
       <r>   38.6226    0.0000 </r>
       <r>   39.5155    0.0000 </r>
       <r>   40.2393    0.0000 </r>
       <r>   40.4347    0.0000 </r>
       <r>   41.0335    0.0000 </r>
       <r>   41.8259    0.0000 </r>
       <r>   42.5562    0.0000 </r>
       <r>   43.2045    0.0000 </r>
       <r>   43.2547    0.0000 </r>
       <r>   44.0586    0.0000 </r>
       <r>   44.3781    0.0000 </r>
       <r>   44.9425    0.0000 </r>
       <r>   45.6871    0.0000 </r>
       <r>   45.9281    0.0000 </r>
       <r>   46.8405    0.0000 </r>
       <r>   47.1167    0.0000 </r>
       <r>   47.5936    0.0000 </r>
       <r>   47.8456    0.0000 </r>
       <r>   48.5402    0.0000 </r>
       <r>   48.7882    0.0000 </r>
       <r>   49.1767    0.0000 </r>
       <r>   50.1817    0.0000 </r>
       <r>   50.3188    0.0000 </r>
       <r>   51.1135    0.0000 </r>
       <r>   51.2599    0.0000 </r>
       <r>   51.6302    0.0000 </r>
       <r>   52.7879    0.0000 </r>
       <r>   53.6307    0.0000 </r>
       <r>   54.3941    0.0000 </r>
       <r>   56.4088    0.0000 </r>
       <r>   57.2924    0.0000 </r>
       <r>   58.9653    0.0000 </r>
       <r>   60.9812    0.0000 </r>
       <r>   62.5479    0.0000 </r>
       <r>   66.3833    0.0000 </r>
       <r>   67.2431    0.0000 </r>
       <r>   68.8531    0.0000 </r>
       <r>   69.8313    0.0000 </r>
       <r>   71.2774    0.0000 </r>
       <r>   71.7964    0.0000 </r>
       <r>   72.7505    0.0000 </r>
      </set>
      <set comment="kpoint 11">
       <r>  -14.6811    1.0000 </r>
       <r>  -14.6549    1.0000 </r>
       <r>  -14.6544    1.0000 </r>
       <r>  -14.5838    1.0000 </r>
       <r>  -14.5805    1.0000 </r>
       <r>  -10.8191    1.0000 </r>
       <r>   -0.3877    1.0000 </r>
       <r>    1.9214    1.0000 </r>
       <r>    2.1029    1.0000 </r>
       <r>    5.5674    0.0000 </r>
       <r>    7.2104    0.0000 </r>
       <r>    8.2887    0.0000 </r>
       <r>    8.6656    0.0000 </r>
       <r>   11.7654    0.0000 </r>
       <r>   13.0694    0.0000 </r>
       <r>   13.2241    0.0000 </r>
       <r>   14.8662    0.0000 </r>
       <r>   17.3496    0.0000 </r>
       <r>   18.2718    0.0000 </r>
       <r>   21.2115    0.0000 </r>
       <r>   24.1698    0.0000 </r>
       <r>   24.3314    0.0000 </r>
       <r>   26.3891    0.0000 </r>
       <r>   28.9747    0.0000 </r>
       <r>   29.2294    0.0000 </r>
       <r>   31.0899    0.0000 </r>
       <r>   31.9805    0.0000 </r>
       <r>   33.4681    0.0000 </r>
       <r>   34.1054    0.0000 </r>
       <r>   35.7656    0.0000 </r>
       <r>   37.1743    0.0000 </r>
       <r>   37.3874    0.0000 </r>
       <r>   37.9047    0.0000 </r>
       <r>   39.0206    0.0000 </r>
       <r>   39.3063    0.0000 </r>
       <r>   39.6867    0.0000 </r>
       <r>   40.8470    0.0000 </r>
       <r>   41.8240    0.0000 </r>
       <r>   41.8602    0.0000 </r>
       <r>   42.6292    0.0000 </r>
       <r>   43.3390    0.0000 </r>
       <r>   43.7502    0.0000 </r>
       <r>   44.6943    0.0000 </r>
       <r>   45.0836    0.0000 </r>
       <r>   45.7795    0.0000 </r>
       <r>   47.0027    0.0000 </r>
       <r>   47.1720    0.0000 </r>
       <r>   48.2268    0.0000 </r>
       <r>   48.2402    0.0000 </r>
       <r>   49.2203    0.0000 </r>
       <r>   49.8071    0.0000 </r>
       <r>   49.9550    0.0000 </r>
       <r>   51.0968    0.0000 </r>
       <r>   51.5866    0.0000 </r>
       <r>   52.6199    0.0000 </r>
       <r>   53.1479    0.0000 </r>
       <r>   54.1193    0.0000 </r>
       <r>   54.3678    0.0000 </r>
       <r>   55.2467    0.0000 </r>
       <r>   56.2819    0.0000 </r>
       <r>   57.3436    0.0000 </r>
       <r>   58.9386    0.0000 </r>
       <r>   60.1395    0.0000 </r>
       <r>   61.1458    0.0000 </r>
       <r>   63.8483    0.0000 </r>
       <r>   64.3534    0.0000 </r>
       <r>   65.2512    0.0000 </r>
       <r>   66.3204    0.0000 </r>
       <r>   67.4454    0.0000 </r>
       <r>   70.8530    0.0000 </r>
       <r>   71.7317    0.0000 </r>
       <r>   72.7317    0.0000 </r>
      </set>
      <set comment="kpoint 12">
       <r>  -14.6910    1.0000 </r>
       <r>  -14.6518    1.0000 </r>
       <r>  -14.6503    1.0000 </r>
       <r>  -14.5838    1.0000 </r>
       <r>  -14.5803    1.0000 </r>
       <r>  -10.4906    1.0000 </r>
       <r>   -1.6408    1.0000 </r>
       <r>    1.6709    1.0000 </r>
       <r>    1.8138    1.0000 </r>
       <r>    5.3967    0.0000 </r>
       <r>    7.6349    0.0000 </r>
       <r>    8.5472    0.0000 </r>
       <r>    9.4538    0.0000 </r>
       <r>   11.9351    0.0000 </r>
       <r>   13.1258    0.0000 </r>
       <r>   13.2739    0.0000 </r>
       <r>   15.7560    0.0000 </r>
       <r>   18.7996    0.0000 </r>
       <r>   19.8202    0.0000 </r>
       <r>   22.2125    0.0000 </r>
       <r>   22.4041    0.0000 </r>
       <r>   22.8143    0.0000 </r>
       <r>   24.5733    0.0000 </r>
       <r>   29.2294    0.0000 </r>
       <r>   29.4603    0.0000 </r>
       <r>   31.4006    0.0000 </r>
       <r>   32.1356    0.0000 </r>
       <r>   33.4259    0.0000 </r>
       <r>   33.6749    0.0000 </r>
       <r>   34.5946    0.0000 </r>
       <r>   35.8968    0.0000 </r>
       <r>   36.2444    0.0000 </r>
       <r>   37.7414    0.0000 </r>
       <r>   38.0046    0.0000 </r>
       <r>   39.4406    0.0000 </r>
       <r>   39.9584    0.0000 </r>
       <r>   40.0541    0.0000 </r>
       <r>   40.8453    0.0000 </r>
       <r>   41.4931    0.0000 </r>
       <r>   41.6700    0.0000 </r>
       <r>   42.8197    0.0000 </r>
       <r>   42.9826    0.0000 </r>
       <r>   44.6729    0.0000 </r>
       <r>   44.9420    0.0000 </r>
       <r>   45.6462    0.0000 </r>
       <r>   46.9608    0.0000 </r>
       <r>   46.9962    0.0000 </r>
       <r>   48.9224    0.0000 </r>
       <r>   49.3270    0.0000 </r>
       <r>   50.0151    0.0000 </r>
       <r>   50.5118    0.0000 </r>
       <r>   51.2540    0.0000 </r>
       <r>   53.0222    0.0000 </r>
       <r>   53.1819    0.0000 </r>
       <r>   54.2996    0.0000 </r>
       <r>   55.2744    0.0000 </r>
       <r>   55.4973    0.0000 </r>
       <r>   56.5749    0.0000 </r>
       <r>   57.4348    0.0000 </r>
       <r>   58.4023    0.0000 </r>
       <r>   58.9576    0.0000 </r>
       <r>   59.5002    0.0000 </r>
       <r>   60.6856    0.0000 </r>
       <r>   62.3607    0.0000 </r>
       <r>   62.4893    0.0000 </r>
       <r>   63.2005    0.0000 </r>
       <r>   63.6416    0.0000 </r>
       <r>   64.7647    0.0000 </r>
       <r>   67.0081    0.0000 </r>
       <r>   69.3563    0.0000 </r>
       <r>   69.6235    0.0000 </r>
       <r>   70.8279    0.0000 </r>
      </set>
      <set comment="kpoint 13">
       <r>  -14.7010    1.0000 </r>
       <r>  -14.6482    1.0000 </r>
       <r>  -14.6469    1.0000 </r>
       <r>  -14.5834    1.0000 </r>
       <r>  -14.5797    1.0000 </r>
       <r>  -10.1022    1.0000 </r>
       <r>   -2.7620    1.0000 </r>
       <r>    1.4815    1.0000 </r>
       <r>    1.5312    1.0000 </r>
       <r>    5.1911    0.0000 </r>
       <r>    7.8653    0.0000 </r>
       <r>    8.5973    0.0000 </r>
       <r>   10.2859    0.0000 </r>
       <r>   12.4477    0.0000 </r>
       <r>   13.0899    0.0000 </r>
       <r>   13.7755    0.0000 </r>
       <r>   17.0871    0.0000 </r>
       <r>   20.0341    0.0000 </r>
       <r>   20.7351    0.0000 </r>
       <r>   20.8196    0.0000 </r>
       <r>   21.5373    0.0000 </r>
       <r>   22.7219    0.0000 </r>
       <r>   24.6316    0.0000 </r>
       <r>   29.5383    0.0000 </r>
       <r>   29.7566    0.0000 </r>
       <r>   30.8776    0.0000 </r>
       <r>   31.7566    0.0000 </r>
       <r>   32.3283    0.0000 </r>
       <r>   33.0416    0.0000 </r>
       <r>   33.3958    0.0000 </r>
       <r>   34.1798    0.0000 </r>
       <r>   36.1469    0.0000 </r>
       <r>   36.7137    0.0000 </r>
       <r>   36.9312    0.0000 </r>
       <r>   38.1805    0.0000 </r>
       <r>   39.0322    0.0000 </r>
       <r>   39.3882    0.0000 </r>
       <r>   41.1524    0.0000 </r>
       <r>   41.5912    0.0000 </r>
       <r>   41.8133    0.0000 </r>
       <r>   42.8619    0.0000 </r>
       <r>   43.9574    0.0000 </r>
       <r>   44.5499    0.0000 </r>
       <r>   44.6928    0.0000 </r>
       <r>   46.8207    0.0000 </r>
       <r>   46.8796    0.0000 </r>
       <r>   47.2498    0.0000 </r>
       <r>   49.4740    0.0000 </r>
       <r>   49.6625    0.0000 </r>
       <r>   50.9696    0.0000 </r>
       <r>   52.0570    0.0000 </r>
       <r>   53.2509    0.0000 </r>
       <r>   54.3914    0.0000 </r>
       <r>   55.0103    0.0000 </r>
       <r>   55.8770    0.0000 </r>
       <r>   56.1858    0.0000 </r>
       <r>   57.4978    0.0000 </r>
       <r>   57.6874    0.0000 </r>
       <r>   58.6647    0.0000 </r>
       <r>   59.6330    0.0000 </r>
       <r>   60.3881    0.0000 </r>
       <r>   60.4800    0.0000 </r>
       <r>   61.5257    0.0000 </r>
       <r>   61.6427    0.0000 </r>
       <r>   61.8393    0.0000 </r>
       <r>   62.6100    0.0000 </r>
       <r>   62.9360    0.0000 </r>
       <r>   64.3991    0.0000 </r>
       <r>   66.6653    0.0000 </r>
       <r>   66.9485    0.0000 </r>
       <r>   68.2036    0.0000 </r>
       <r>   69.7998    0.0000 </r>
      </set>
      <set comment="kpoint 14">
       <r>  -14.7096    1.0000 </r>
       <r>  -14.6454    1.0000 </r>
       <r>  -14.6445    1.0000 </r>
       <r>  -14.5822    1.0000 </r>
       <r>  -14.5789    1.0000 </r>
       <r>   -9.7023    1.0000 </r>
       <r>   -3.6991    1.0000 </r>
       <r>    1.2921    1.0000 </r>
       <r>    1.3640    1.0000 </r>
       <r>    5.0247    0.0000 </r>
       <r>    7.9236    0.0000 </r>
       <r>    8.5131    0.0000 </r>
       <r>   11.0933    0.0000 </r>
       <r>   12.6721    0.0000 </r>
       <r>   13.9110    0.0000 </r>
       <r>   14.6532    0.0000 </r>
       <r>   17.5137    0.0000 </r>
       <r>   18.5500    0.0000 </r>
       <r>   20.0933    0.0000 </r>
       <r>   21.4661    0.0000 </r>
       <r>   22.2445    0.0000 </r>
       <r>   23.4343    0.0000 </r>
       <r>   26.3918    0.0000 </r>
       <r>   28.7250    0.0000 </r>
       <r>   29.7490    0.0000 </r>
       <r>   29.8128    0.0000 </r>
       <r>   30.5719    0.0000 </r>
       <r>   31.2403    0.0000 </r>
       <r>   32.2240    0.0000 </r>
       <r>   33.1196    0.0000 </r>
       <r>   34.2382    0.0000 </r>
       <r>   34.8278    0.0000 </r>
       <r>   35.9423    0.0000 </r>
       <r>   35.9596    0.0000 </r>
       <r>   37.5439    0.0000 </r>
       <r>   38.1352    0.0000 </r>
       <r>   38.7023    0.0000 </r>
       <r>   40.6748    0.0000 </r>
       <r>   40.7897    0.0000 </r>
       <r>   41.8713    0.0000 </r>
       <r>   44.0580    0.0000 </r>
       <r>   44.3049    0.0000 </r>
       <r>   45.2467    0.0000 </r>
       <r>   46.0261    0.0000 </r>
       <r>   46.9674    0.0000 </r>
       <r>   47.4062    0.0000 </r>
       <r>   48.8035    0.0000 </r>
       <r>   49.5848    0.0000 </r>
       <r>   50.6558    0.0000 </r>
       <r>   52.0487    0.0000 </r>
       <r>   53.7760    0.0000 </r>
       <r>   54.7511    0.0000 </r>
       <r>   55.2593    0.0000 </r>
       <r>   55.4959    0.0000 </r>
       <r>   56.0773    0.0000 </r>
       <r>   57.0906    0.0000 </r>
       <r>   58.1914    0.0000 </r>
       <r>   58.4193    0.0000 </r>
       <r>   59.2295    0.0000 </r>
       <r>   59.4857    0.0000 </r>
       <r>   59.8460    0.0000 </r>
       <r>   60.0809    0.0000 </r>
       <r>   61.0808    0.0000 </r>
       <r>   62.9114    0.0000 </r>
       <r>   63.5608    0.0000 </r>
       <r>   63.5866    0.0000 </r>
       <r>   63.9118    0.0000 </r>
       <r>   65.4853    0.0000 </r>
       <r>   65.8398    0.0000 </r>
       <r>   66.0255    0.0000 </r>
       <r>   66.8756    0.0000 </r>
       <r>   67.7818    0.0000 </r>
      </set>
      <set comment="kpoint 15">
       <r>  -14.7146    1.0000 </r>
       <r>  -14.6440    1.0000 </r>
       <r>  -14.6431    1.0000 </r>
       <r>  -14.5808    1.0000 </r>
       <r>  -14.5791    1.0000 </r>
       <r>   -9.3859    1.0000 </r>
       <r>   -4.3288    1.0000 </r>
       <r>    1.1138    1.0000 </r>
       <r>    1.3304    1.0000 </r>
       <r>    4.9220    0.0000 </r>
       <r>    7.9396    0.0000 </r>
       <r>    8.3910    0.0000 </r>
       <r>   11.5090    0.0000 </r>
       <r>   13.3003    0.0000 </r>
       <r>   14.9758    0.0000 </r>
       <r>   15.6417    0.0000 </r>
       <r>   16.6488    0.0000 </r>
       <r>   17.1318    0.0000 </r>
       <r>   18.9807    0.0000 </r>
       <r>   22.4290    0.0000 </r>
       <r>   24.1032    0.0000 </r>
       <r>   25.3433    0.0000 </r>
       <r>   26.2573    0.0000 </r>
       <r>   27.7424    0.0000 </r>
       <r>   28.8644    0.0000 </r>
       <r>   28.9656    0.0000 </r>
       <r>   30.1906    0.0000 </r>
       <r>   30.5434    0.0000 </r>
       <r>   32.4790    0.0000 </r>
       <r>   32.4876    0.0000 </r>
       <r>   33.4190    0.0000 </r>
       <r>   34.3405    0.0000 </r>
       <r>   35.3096    0.0000 </r>
       <r>   35.5584    0.0000 </r>
       <r>   37.5427    0.0000 </r>
       <r>   37.6486    0.0000 </r>
       <r>   38.4252    0.0000 </r>
       <r>   40.1828    0.0000 </r>
       <r>   40.2380    0.0000 </r>
       <r>   41.7718    0.0000 </r>
       <r>   43.9366    0.0000 </r>
       <r>   44.0785    0.0000 </r>
       <r>   46.6134    0.0000 </r>
       <r>   46.7879    0.0000 </r>
       <r>   47.7723    0.0000 </r>
       <r>   49.1078    0.0000 </r>
       <r>   49.3285    0.0000 </r>
       <r>   50.9724    0.0000 </r>
       <r>   51.8826    0.0000 </r>
       <r>   52.6113    0.0000 </r>
       <r>   53.7453    0.0000 </r>
       <r>   53.8764    0.0000 </r>
       <r>   54.9436    0.0000 </r>
       <r>   55.9804    0.0000 </r>
       <r>   56.7489    0.0000 </r>
       <r>   57.0406    0.0000 </r>
       <r>   57.2110    0.0000 </r>
       <r>   57.9318    0.0000 </r>
       <r>   59.9428    0.0000 </r>
       <r>   60.0908    0.0000 </r>
       <r>   60.8663    0.0000 </r>
       <r>   61.5852    0.0000 </r>
       <r>   62.2322    0.0000 </r>
       <r>   62.5817    0.0000 </r>
       <r>   62.7341    0.0000 </r>
       <r>   63.7155    0.0000 </r>
       <r>   64.2852    0.0000 </r>
       <r>   64.8367    0.0000 </r>
       <r>   65.7113    0.0000 </r>
       <r>   66.6543    0.0000 </r>
       <r>   67.7679    0.0000 </r>
       <r>   68.1598    0.0000 </r>
      </set>
      <set comment="kpoint 16">
       <r>  -14.7158    1.0000 </r>
       <r>  -14.6433    1.0000 </r>
       <r>  -14.6432    1.0000 </r>
       <r>  -14.5800    1.0000 </r>
       <r>  -14.5797    1.0000 </r>
       <r>   -9.2924    1.0000 </r>
       <r>   -4.4993    1.0000 </r>
       <r>    1.0148    1.0000 </r>
       <r>    1.3798    1.0000 </r>
       <r>    4.8926    0.0000 </r>
       <r>    7.9937    0.0000 </r>
       <r>    8.2933    0.0000 </r>
       <r>   11.5863    0.0000 </r>
       <r>   13.9488    0.0000 </r>
       <r>   15.1846    0.0000 </r>
       <r>   15.2630    0.0000 </r>
       <r>   16.6442    0.0000 </r>
       <r>   17.4990    0.0000 </r>
       <r>   17.8613    0.0000 </r>
       <r>   23.2016    0.0000 </r>
       <r>   25.2025    0.0000 </r>
       <r>   25.7142    0.0000 </r>
       <r>   25.9817    0.0000 </r>
       <r>   27.0423    0.0000 </r>
       <r>   27.5644    0.0000 </r>
       <r>   29.8935    0.0000 </r>
       <r>   30.1965    0.0000 </r>
       <r>   30.8697    0.0000 </r>
       <r>   31.0547    0.0000 </r>
       <r>   32.5509    0.0000 </r>
       <r>   33.4261    0.0000 </r>
       <r>   34.4178    0.0000 </r>
       <r>   35.0969    0.0000 </r>
       <r>   35.4747    0.0000 </r>
       <r>   37.3824    0.0000 </r>
       <r>   37.6606    0.0000 </r>
       <r>   38.4436    0.0000 </r>
       <r>   40.0436    0.0000 </r>
       <r>   40.0529    0.0000 </r>
       <r>   41.8236    0.0000 </r>
       <r>   43.6224    0.0000 </r>
       <r>   44.0687    0.0000 </r>
       <r>   46.8361    0.0000 </r>
       <r>   46.8857    0.0000 </r>
       <r>   48.6683    0.0000 </r>
       <r>   49.5313    0.0000 </r>
       <r>   49.6923    0.0000 </r>
       <r>   51.4696    0.0000 </r>
       <r>   52.2495    0.0000 </r>
       <r>   52.9060    0.0000 </r>
       <r>   53.1802    0.0000 </r>
       <r>   53.8297    0.0000 </r>
       <r>   54.4967    0.0000 </r>
       <r>   55.6768    0.0000 </r>
       <r>   56.2097    0.0000 </r>
       <r>   57.0331    0.0000 </r>
       <r>   57.9112    0.0000 </r>
       <r>   58.0073    0.0000 </r>
       <r>   59.9508    0.0000 </r>
       <r>   60.7697    0.0000 </r>
       <r>   60.8052    0.0000 </r>
       <r>   61.3083    0.0000 </r>
       <r>   62.1732    0.0000 </r>
       <r>   62.8577    0.0000 </r>
       <r>   63.0072    0.0000 </r>
       <r>   64.1928    0.0000 </r>
       <r>   64.7089    0.0000 </r>
       <r>   65.1218    0.0000 </r>
       <r>   65.2208    0.0000 </r>
       <r>   66.0114    0.0000 </r>
       <r>   66.1007    0.0000 </r>
       <r>   68.2884    0.0000 </r>
      </set>
      <set comment="kpoint 17">
       <r>  -14.7132    1.0000 </r>
       <r>  -14.6443    1.0000 </r>
       <r>  -14.6436    1.0000 </r>
       <r>  -14.5805    1.0000 </r>
       <r>  -14.5795    1.0000 </r>
       <r>   -9.4745    1.0000 </r>
       <r>   -4.1615    1.0000 </r>
       <r>    1.0021    1.0000 </r>
       <r>    1.5082    1.0000 </r>
       <r>    4.9383    0.0000 </r>
       <r>    8.1052    0.0000 </r>
       <r>    8.2400    0.0000 </r>
       <r>   11.5147    0.0000 </r>
       <r>   13.2625    0.0000 </r>
       <r>   13.9721    0.0000 </r>
       <r>   15.6306    0.0000 </r>
       <r>   16.5739    0.0000 </r>
       <r>   18.4714    0.0000 </r>
       <r>   18.9583    0.0000 </r>
       <r>   21.8273    0.0000 </r>
       <r>   23.4743    0.0000 </r>
       <r>   24.9064    0.0000 </r>
       <r>   26.8681    0.0000 </r>
       <r>   28.2028    0.0000 </r>
       <r>   28.3046    0.0000 </r>
       <r>   29.6422    0.0000 </r>
       <r>   30.0813    0.0000 </r>
       <r>   30.6622    0.0000 </r>
       <r>   32.3730    0.0000 </r>
       <r>   32.8497    0.0000 </r>
       <r>   33.6535    0.0000 </r>
       <r>   34.4670    0.0000 </r>
       <r>   35.3818    0.0000 </r>
       <r>   35.6942    0.0000 </r>
       <r>   37.5971    0.0000 </r>
       <r>   37.6979    0.0000 </r>
       <r>   38.5485    0.0000 </r>
       <r>   40.2778    0.0000 </r>
       <r>   40.4593    0.0000 </r>
       <r>   41.9879    0.0000 </r>
       <r>   43.3885    0.0000 </r>
       <r>   44.1336    0.0000 </r>
       <r>   46.7480    0.0000 </r>
       <r>   46.8151    0.0000 </r>
       <r>   47.6811    0.0000 </r>
       <r>   47.9472    0.0000 </r>
       <r>   48.9649    0.0000 </r>
       <r>   49.8962    0.0000 </r>
       <r>   52.0372    0.0000 </r>
       <r>   53.5258    0.0000 </r>
       <r>   54.0376    0.0000 </r>
       <r>   54.7330    0.0000 </r>
       <r>   55.2266    0.0000 </r>
       <r>   55.5693    0.0000 </r>
       <r>   55.8595    0.0000 </r>
       <r>   56.7910    0.0000 </r>
       <r>   57.1222    0.0000 </r>
       <r>   58.1930    0.0000 </r>
       <r>   59.1055    0.0000 </r>
       <r>   59.6466    0.0000 </r>
       <r>   60.8883    0.0000 </r>
       <r>   61.6194    0.0000 </r>
       <r>   62.1139    0.0000 </r>
       <r>   62.5437    0.0000 </r>
       <r>   63.1317    0.0000 </r>
       <r>   63.3248    0.0000 </r>
       <r>   64.1173    0.0000 </r>
       <r>   65.3764    0.0000 </r>
       <r>   66.0702    0.0000 </r>
       <r>   66.9316    0.0000 </r>
       <r>   67.3500    0.0000 </r>
       <r>   67.8047    0.0000 </r>
      </set>
      <set comment="kpoint 18">
       <r>  -14.7066    1.0000 </r>
       <r>  -14.6465    1.0000 </r>
       <r>  -14.6453    1.0000 </r>
       <r>  -14.5822    1.0000 </r>
       <r>  -14.5796    1.0000 </r>
       <r>   -9.8329    1.0000 </r>
       <r>   -3.4107    1.0000 </r>
       <r>    1.0781    1.0000 </r>
       <r>    1.7059    1.0000 </r>
       <r>    5.0560    0.0000 </r>
       <r>    8.2009    0.0000 </r>
       <r>    8.2346    0.0000 </r>
       <r>   11.0131    0.0000 </r>
       <r>   12.7309    0.0000 </r>
       <r>   12.9328    0.0000 </r>
       <r>   14.6748    0.0000 </r>
       <r>   17.3898    0.0000 </r>
       <r>   19.2316    0.0000 </r>
       <r>   20.5979    0.0000 </r>
       <r>   21.1286    0.0000 </r>
       <r>   21.7750    0.0000 </r>
       <r>   23.0927    0.0000 </r>
       <r>   25.6946    0.0000 </r>
       <r>   29.4646    0.0000 </r>
       <r>   29.6827    0.0000 </r>
       <r>   30.3164    0.0000 </r>
       <r>   30.6897    0.0000 </r>
       <r>   31.8103    0.0000 </r>
       <r>   32.0443    0.0000 </r>
       <r>   33.0041    0.0000 </r>
       <r>   34.3449    0.0000 </r>
       <r>   35.5471    0.0000 </r>
       <r>   36.0494    0.0000 </r>
       <r>   36.3219    0.0000 </r>
       <r>   37.4944    0.0000 </r>
       <r>   38.3915    0.0000 </r>
       <r>   39.0775    0.0000 </r>
       <r>   40.8501    0.0000 </r>
       <r>   41.1427    0.0000 </r>
       <r>   42.2475    0.0000 </r>
       <r>   43.1597    0.0000 </r>
       <r>   44.1783    0.0000 </r>
       <r>   44.5087    0.0000 </r>
       <r>   45.6383    0.0000 </r>
       <r>   47.1035    0.0000 </r>
       <r>   47.7580    0.0000 </r>
       <r>   47.8797    0.0000 </r>
       <r>   49.0311    0.0000 </r>
       <r>   50.2712    0.0000 </r>
       <r>   52.9896    0.0000 </r>
       <r>   53.5503    0.0000 </r>
       <r>   54.1380    0.0000 </r>
       <r>   54.7849    0.0000 </r>
       <r>   55.5738    0.0000 </r>
       <r>   56.3317    0.0000 </r>
       <r>   56.9066    0.0000 </r>
       <r>   57.3774    0.0000 </r>
       <r>   57.9239    0.0000 </r>
       <r>   58.8513    0.0000 </r>
       <r>   59.1906    0.0000 </r>
       <r>   60.3255    0.0000 </r>
       <r>   60.6806    0.0000 </r>
       <r>   61.1522    0.0000 </r>
       <r>   61.6821    0.0000 </r>
       <r>   62.8630    0.0000 </r>
       <r>   63.5900    0.0000 </r>
       <r>   64.1158    0.0000 </r>
       <r>   65.0508    0.0000 </r>
       <r>   65.3335    0.0000 </r>
       <r>   66.4103    0.0000 </r>
       <r>   67.6623    0.0000 </r>
       <r>   68.3709    0.0000 </r>
      </set>
      <set comment="kpoint 19">
       <r>  -14.6973    1.0000 </r>
       <r>  -14.6501    1.0000 </r>
       <r>  -14.6479    1.0000 </r>
       <r>  -14.5832    1.0000 </r>
       <r>  -14.5803    1.0000 </r>
       <r>  -10.2361    1.0000 </r>
       <r>   -2.4067    1.0000 </r>
       <r>    1.2428    1.0000 </r>
       <r>    1.9497    1.0000 </r>
[...]
       <r>    59.2328     2.0035   117.7459 </r>
       <r>    59.2815     2.3571   117.8607 </r>
       <r>    59.3302     2.2011   117.9679 </r>
       <r>    59.3789     2.4602   118.0877 </r>
       <r>    59.4276     2.5812   118.2134 </r>
       <r>    59.4763     2.0284   118.3122 </r>
       <r>    59.5250     1.8829   118.4039 </r>
       <r>    59.5737     1.9644   118.4996 </r>
       <r>    59.6224     1.8364   118.5890 </r>
       <r>    59.6711     1.7886   118.6761 </r>
       <r>    59.7198     1.8730   118.7673 </r>
       <r>    59.7685     2.3187   118.8802 </r>
       <r>    59.8172     2.9906   119.0259 </r>
       <r>    59.8659     3.2412   119.1837 </r>
       <r>    59.9146     3.4716   119.3528 </r>
       <r>    59.9633     2.8298   119.4906 </r>
       <r>    60.0120     2.4382   119.6093 </r>
       <r>    60.0607     2.2992   119.7213 </r>
       <r>    60.1094     2.4315   119.8397 </r>
       <r>    60.1581     2.3617   119.9547 </r>
       <r>    60.2068     2.4452   120.0738 </r>
       <r>    60.2555     3.1071   120.2251 </r>
       <r>    60.3042     3.7795   120.4091 </r>
       <r>    60.3529     3.7789   120.5932 </r>
       <r>    60.4016     3.2934   120.7535 </r>
       <r>    60.4503     3.5671   120.9273 </r>
       <r>    60.4990     3.5605   121.1006 </r>
       <r>    60.5477     3.0233   121.2479 </r>
       <r>    60.5964     2.1617   121.3532 </r>
       <r>    60.6451     2.4220   121.4711 </r>
       <r>    60.6938     2.7035   121.6028 </r>
       <r>    60.7425     2.6518   121.7319 </r>
       <r>    60.7911     2.9237   121.8743 </r>
       <r>    60.8398     2.7393   122.0077 </r>
       <r>    60.8885     3.0951   122.1584 </r>
       <r>    60.9372     3.0757   122.3082 </r>
       <r>    60.9859     2.4602   122.4280 </r>
       <r>    61.0346     2.3972   122.5447 </r>
       <r>    61.0833     2.1522   122.6495 </r>
       <r>    61.1320     2.3138   122.7622 </r>
       <r>    61.1807     2.2251   122.8706 </r>
       <r>    61.2294     1.4765   122.9425 </r>
       <r>    61.2781     2.1105   123.0452 </r>
       <r>    61.3268     2.6527   123.1744 </r>
       <r>    61.3755     1.9130   123.2676 </r>
       <r>    61.4242     1.6288   123.3469 </r>
       <r>    61.4729     1.7953   123.4343 </r>
       <r>    61.5216     2.9540   123.5782 </r>
       <r>    61.5703     3.7468   123.7607 </r>
       <r>    61.6190     3.3077   123.9217 </r>
       <r>    61.6677     2.9790   124.0668 </r>
       <r>    61.7164     3.1335   124.2194 </r>
       <r>    61.7651     2.2902   124.3309 </r>
       <r>    61.8138     1.7791   124.4176 </r>
       <r>    61.8625     1.7203   124.5013 </r>
       <r>    61.9112     2.3875   124.6176 </r>
       <r>    61.9599     2.8642   124.7571 </r>
       <r>    62.0086     2.6030   124.8839 </r>
       <r>    62.0573     2.4487   125.0031 </r>
       <r>    62.1060     2.6195   125.1307 </r>
       <r>    62.1547     2.0591   125.2309 </r>
       <r>    62.2034     1.4143   125.2998 </r>
       <r>    62.2521     1.5120   125.3734 </r>
       <r>    62.3008     2.0150   125.4716 </r>
       <r>    62.3495     2.5547   125.5960 </r>
       <r>    62.3982     2.2165   125.7039 </r>
       <r>    62.4469     2.2684   125.8144 </r>
       <r>    62.4956     2.8780   125.9545 </r>
       <r>    62.5443     3.5473   126.1273 </r>
       <r>    62.5930     3.3646   126.2911 </r>
       <r>    62.6417     2.6219   126.4188 </r>
       <r>    62.6904     2.3766   126.5346 </r>
       <r>    62.7391     2.5584   126.6591 </r>
       <r>    62.7878     2.1385   126.7633 </r>
       <r>    62.8365     2.6676   126.8932 </r>
       <r>    62.8852     3.2286   127.0504 </r>
       <r>    62.9339     3.2632   127.2093 </r>
       <r>    62.9826     2.7310   127.3423 </r>
       <r>    63.0313     2.6090   127.4694 </r>
       <r>    63.0800     2.8345   127.6074 </r>
       <r>    63.1287     2.6981   127.7388 </r>
       <r>    63.1774     2.2914   127.8504 </r>
       <r>    63.2261     2.4001   127.9673 </r>
       <r>    63.2748     2.4963   128.0889 </r>
       <r>    63.3235     2.4721   128.2092 </r>
       <r>    63.3722     1.9989   128.3066 </r>
       <r>    63.4208     1.6082   128.3849 </r>
       <r>    63.4695     1.8244   128.4737 </r>
       <r>    63.5182     1.9583   128.5691 </r>
       <r>    63.5669     2.4758   128.6897 </r>
       <r>    63.6156     2.8580   128.8289 </r>
       <r>    63.6643     2.9736   128.9737 </r>
       <r>    63.7130     2.9522   129.1174 </r>
       <r>    63.7617     2.9396   129.2606 </r>
       <r>    63.8104     3.1165   129.4124 </r>
       <r>    63.8591     2.3100   129.5248 </r>
       <r>    63.9078     2.4323   129.6433 </r>
       <r>    63.9565     2.6464   129.7722 </r>
       <r>    64.0052     2.2684   129.8826 </r>
       <r>    64.0539     2.8823   130.0230 </r>
       <r>    64.1026     3.3624   130.1867 </r>
       <r>    64.1513     2.6663   130.3166 </r>
       <r>    64.2000     2.9753   130.4615 </r>
       <r>    64.2487     3.3770   130.6259 </r>
       <r>    64.2974     2.9045   130.7674 </r>
       <r>    64.3461     2.3300   130.8808 </r>
       <r>    64.3948     2.2691   130.9913 </r>
       <r>    64.4435     2.1302   131.0951 </r>
       <r>    64.4922     1.5010   131.1682 </r>
       <r>    64.5409     1.5692   131.2446 </r>
       <r>    64.5896     2.0562   131.3447 </r>
       <r>    64.6383     1.5535   131.4204 </r>
       <r>    64.6870     0.8625   131.4624 </r>
       <r>    64.7357     1.7869   131.5494 </r>
       <r>    64.7844     2.4144   131.6670 </r>
       <r>    64.8331     1.6517   131.7474 </r>
       <r>    64.8818     1.8813   131.8390 </r>
       <r>    64.9305     2.7257   131.9718 </r>
       <r>    64.9792     2.3126   132.0844 </r>
       <r>    65.0279     2.0007   132.1818 </r>
       <r>    65.0766     2.9391   132.3249 </r>
       <r>    65.1253     2.7343   132.4581 </r>
       <r>    65.1740     2.3332   132.5717 </r>
       <r>    65.2227     3.7192   132.7528 </r>
       <r>    65.2714     4.9548   132.9941 </r>
       <r>    65.3201     4.0871   133.1932 </r>
       <r>    65.3688     2.6360   133.3215 </r>
       <r>    65.4175     2.3733   133.4371 </r>
       <r>    65.4662     2.4174   133.5548 </r>
       <r>    65.5149     2.1068   133.6574 </r>
       <r>    65.5636     2.2282   133.7659 </r>
       <r>    65.6123     2.2099   133.8735 </r>
       <r>    65.6610     2.1149   133.9765 </r>
       <r>    65.7097     1.6513   134.0569 </r>
       <r>    65.7584     1.3858   134.1244 </r>
       <r>    65.8071     2.6244   134.2522 </r>
       <r>    65.8558     3.8353   134.4390 </r>
       <r>    65.9045     3.7905   134.6236 </r>
       <r>    65.9532     2.8961   134.7646 </r>
       <r>    66.0019     2.4547   134.8842 </r>
       <r>    66.0505     2.3517   134.9987 </r>
       <r>    66.0992     2.1835   135.1050 </r>
       <r>    66.1479     2.1552   135.2100 </r>
       <r>    66.1966     2.5436   135.3339 </r>
       <r>    66.2453     3.8311   135.5204 </r>
       <r>    66.2940     3.7207   135.7016 </r>
       <r>    66.3427     2.9908   135.8473 </r>
       <r>    66.3914     2.6081   135.9743 </r>
       <r>    66.4401     2.8770   136.1144 </r>
       <r>    66.4888     3.2966   136.2749 </r>
       <r>    66.5375     3.5003   136.4454 </r>
       <r>    66.5862     3.7833   136.6296 </r>
       <r>    66.6349     3.7967   136.8145 </r>
       <r>    66.6836     3.1910   136.9699 </r>
       <r>    66.7323     2.7544   137.1040 </r>
       <r>    66.7810     3.1305   137.2565 </r>
       <r>    66.8297     3.2117   137.4129 </r>
       <r>    66.8784     2.5770   137.5384 </r>
       <r>    66.9271     2.1075   137.6410 </r>
       <r>    66.9758     2.1277   137.7446 </r>
       <r>    67.0245     2.5821   137.8704 </r>
       <r>    67.0732     2.6544   137.9996 </r>
       <r>    67.1219     1.8256   138.0885 </r>
       <r>    67.1706     1.5012   138.1617 </r>
       <r>    67.2193     1.5587   138.2376 </r>
       <r>    67.2680     1.8748   138.3289 </r>
       <r>    67.3167     2.4290   138.4472 </r>
       <r>    67.3654     2.3291   138.5606 </r>
       <r>    67.4141     3.4223   138.7272 </r>
       <r>    67.4628     3.6156   138.9033 </r>
       <r>    67.5115     2.9320   139.0461 </r>
       <r>    67.5602     2.6801   139.1766 </r>
       <r>    67.6089     2.5794   139.3022 </r>
       <r>    67.6576     3.2393   139.4600 </r>
       <r>    67.7063     2.6855   139.5907 </r>
       <r>    67.7550     1.9962   139.6880 </r>
       <r>    67.8037     2.5091   139.8101 </r>
       <r>    67.8524     3.3154   139.9716 </r>
       <r>    67.9011     2.7439   140.1052 </r>
       <r>    67.9498     2.2906   140.2168 </r>
       <r>    67.9985     2.0458   140.3164 </r>
       <r>    68.0472     2.0826   140.4178 </r>
       <r>    68.0959     2.3169   140.5306 </r>
       <r>    68.1446     1.8553   140.6210 </r>
       <r>    68.1933     2.2667   140.7314 </r>
       <r>    68.2420     2.7602   140.8658 </r>
       <r>    68.2907     2.3840   140.9819 </r>
       <r>    68.3394     2.0604   141.0822 </r>
       <r>    68.3881     2.7185   141.2146 </r>
       <r>    68.4368     3.7781   141.3986 </r>
       <r>    68.4855     3.3465   141.5616 </r>
       <r>    68.5342     3.1354   141.7143 </r>
       <r>    68.5829     3.1963   141.8699 </r>
       <r>    68.6316     2.1026   141.9723 </r>
       <r>    68.6802     1.3934   142.0402 </r>
       <r>    68.7289     1.6647   142.1212 </r>
       <r>    68.7776     2.1875   142.2278 </r>
       <r>    68.8263     2.7213   142.3603 </r>
       <r>    68.8750     2.3157   142.4731 </r>
       <r>    68.9237     1.7317   142.5574 </r>
       <r>    68.9724     1.7036   142.6404 </r>
       <r>    69.0211     1.8582   142.7308 </r>
       <r>    69.0698     1.0031   142.7797 </r>
       <r>    69.1185     0.4918   142.8036 </r>
       <r>    69.1672     0.7225   142.8388 </r>
       <r>    69.2159     1.3158   142.9029 </r>
       <r>    69.2646     1.5630   142.9790 </r>
       <r>    69.3133     0.9914   143.0273 </r>
       <r>    69.3620     0.6484   143.0589 </r>
       <r>    69.4107     0.5560   143.0860 </r>
       <r>    69.4594     0.4316   143.1070 </r>
       <r>    69.5081     0.4149   143.1272 </r>
       <r>    69.5568     0.7663   143.1645 </r>
       <r>    69.6055     0.8404   143.2054 </r>
       <r>    69.6542     0.7693   143.2429 </r>
       <r>    69.7029     0.8200   143.2828 </r>
       <r>    69.7516     0.6648   143.3152 </r>
       <r>    69.8003     0.5088   143.3400 </r>
       <r>    69.8490     0.6958   143.3739 </r>
       <r>    69.8977     0.4282   143.3947 </r>
       <r>    69.9464     0.1724   143.4031 </r>
       <r>    69.9951     0.5984   143.4322 </r>
       <r>    70.0438     0.9718   143.4796 </r>
       <r>    70.0925     0.7241   143.5148 </r>
       <r>    70.1412     0.3472   143.5317 </r>
       <r>    70.1899     0.2666   143.5447 </r>
       <r>    70.2386     0.4964   143.5689 </r>
       <r>    70.2873     0.5351   143.5950 </r>
       <r>    70.3360     0.2421   143.6068 </r>
       <r>    70.3847     0.2506   143.6190 </r>
       <r>    70.4334     0.6158   143.6489 </r>
       <r>    70.4821     0.5535   143.6759 </r>
       <r>    70.5308     0.2058   143.6859 </r>
       <r>    70.5795     0.0621   143.6889 </r>
       <r>    70.6282     0.0665   143.6922 </r>
       <r>    70.6769     0.1925   143.7016 </r>
       <r>    70.7256     0.1713   143.7099 </r>
       <r>    70.7743     0.0724   143.7134 </r>
       <r>    70.8230     0.2354   143.7249 </r>
       <r>    70.8717     0.3276   143.7408 </r>
       <r>    70.9204     0.1205   143.7467 </r>
       <r>    70.9691     0.0691   143.7501 </r>
       <r>    71.0178     0.1655   143.7581 </r>
       <r>    71.0665     0.1816   143.7670 </r>
       <r>    71.1152     0.1396   143.7738 </r>
       <r>    71.1639     0.0325   143.7754 </r>
       <r>    71.2126     0.0232   143.7765 </r>
       <r>    71.2613     0.1798   143.7853 </r>
       <r>    71.3099     0.2894   143.7993 </r>
       <r>    71.3586     0.0988   143.8042 </r>
       <r>    71.4073     0.0394   143.8061 </r>
       <r>    71.4560     0.1311   143.8125 </r>
       <r>    71.5047     0.1552   143.8200 </r>
       <r>    71.5534     0.0428   143.8221 </r>
       <r>    71.6021     0.0024   143.8222 </r>
       <r>    71.6508     0.0034   143.8224 </r>
       <r>    71.6995     0.0556   143.8251 </r>
       <r>    71.7482     0.2043   143.8350 </r>
       <r>    71.7969     0.2525   143.8473 </r>
       <r>    71.8456     0.1560   143.8549 </r>
       <r>    71.8943     0.0971   143.8597 </r>
       <r>    71.9430     0.1398   143.8665 </r>
       <r>    71.9917     0.1570   143.8741 </r>
       <r>    72.0404     0.0870   143.8784 </r>
       <r>    72.0891     0.2177   143.8890 </r>
       <r>    72.1378     0.2677   143.9020 </r>
       <r>    72.1865     0.1244   143.9081 </r>
       <r>    72.2352     0.1586   143.9158 </r>
       <r>    72.2839     0.1426   143.9227 </r>
       <r>    72.3326     0.1622   143.9306 </r>
       <r>    72.3813     0.0958   143.9353 </r>
       <r>    72.4300     0.0209   143.9363 </r>
       <r>    72.4787     0.0581   143.9391 </r>
       <r>    72.5274     0.0967   143.9438 </r>
       <r>    72.5761     0.0424   143.9459 </r>
       <r>    72.6248     0.0807   143.9498 </r>
       <r>    72.6735     0.1350   143.9564 </r>
       <r>    72.7222     0.1934   143.9658 </r>
       <r>    72.7709     0.2879   143.9799 </r>
       <r>    72.8196     0.1123   143.9853 </r>
       <r>    72.8683     0.0092   143.9858 </r>
       <r>    72.9170     0.0001   143.9858 </r>
       <r>    72.9657     0.0007   143.9858 </r>
       <r>    73.0144     0.0186   143.9867 </r>
       <r>    73.0631     0.0851   143.9909 </r>
       <r>    73.1118     0.0765   143.9946 </r>
       <r>    73.1605     0.0136   143.9952 </r>
       <r>    73.2092     0.0056   143.9955 </r>
       <r>    73.2579     0.0290   143.9969 </r>
       <r>    73.3066     0.0316   143.9985 </r>
       <r>    73.3553     0.0067   143.9988 </r>
       <r>    73.4040     0.0003   143.9988 </r>
       <r>    73.4527     0.0000   143.9988 </r>
       <r>    73.5014     0.0000   143.9988 </r>
       <r>    73.5501     0.0000   143.9988 </r>
       <r>    73.5988     0.0000   143.9988 </r>
       <r>    73.6475     0.0000   143.9988 </r>
       <r>    73.6962     0.0000   143.9988 </r>
       <r>    73.7449     0.0016   143.9989 </r>
       <r>    73.7936     0.0093   143.9993 </r>
       <r>    73.8423     0.0108   143.9999 </r>
       <r>    73.8910     0.0025   144.0000 </r>
       <r>    73.9396     0.0001   144.0000 </r>
       <r>    73.9883     0.0000   144.0000 </r>
       <r>    74.0370     0.0000   144.0000 </r>
       <r>    74.0857     0.0000   144.0000 </r>
       <r>    74.1344     0.0000   144.0000 </r>
       <r>    74.1831     0.0000   144.0000 </r>
       <r>    74.2318     0.0000   144.0000 </r>
       <r>    74.2805     0.0000   144.0000 </r>
       <r>    74.3292     0.0000   144.0000 </r>
       <r>    74.3779     0.0000   144.0000 </r>
       <r>    74.4266     0.0000   144.0000 </r>
       <r>    74.4753     0.0000   144.0000 </r>
       <r>    74.5240     0.0000   144.0000 </r>
       <r>    74.5727     0.0000   144.0000 </r>
       <r>    74.6214     0.0000   144.0000 </r>
       <r>    74.6701     0.0000   144.0000 </r>
       <r>    74.7188     0.0000   144.0000 </r>
       <r>    74.7675     0.0000   144.0000 </r>
       <r>    74.8162     0.0000   144.0000 </r>
       <r>    74.8649     0.0000   144.0000 </r>
       <r>    74.9136     0.0000   144.0000 </r>
       <r>    74.9623     0.0000   144.0000 </r>
       <r>    75.0110     0.0000   144.0000 </r>
       <r>    75.0597     0.0000   144.0000 </r>
       <r>    75.1084     0.0000   144.0000 </r>
       <r>    75.1571     0.0000   144.0000 </r>
       <r>    75.2058     0.0000   144.0000 </r>
       <r>    75.2545     0.0000   144.0000 </r>
       <r>    75.3032     0.0000   144.0000 </r>
       <r>    75.3519     0.0000   144.0000 </r>
       <r>    75.4006     0.0000   144.0000 </r>
       <r>    75.4493     0.0000   144.0000 </r>
       <r>    75.4980     0.0000   144.0000 </r>
       <r>    75.5467     0.0000   144.0000 </r>
       <r>    75.5954     0.0000   144.0000 </r>
       <r>    75.6441     0.0000   144.0000 </r>
       <r>    75.6928     0.0000   144.0000 </r>
       <r>    75.7415     0.0000   144.0000 </r>
       <r>    75.7902     0.0000   144.0000 </r>
       <r>    75.8389     0.0000   144.0000 </r>
       <r>    75.8876     0.0000   144.0000 </r>
       <r>    75.9363     0.0000   144.0000 </r>
       <r>    75.9850     0.0000   144.0000 </r>
       <r>    76.0337     0.0000   144.0000 </r>
       <r>    76.0824     0.0000   144.0000 </r>
       <r>    76.1311     0.0000   144.0000 </r>
       <r>    76.1798     0.0000   144.0000 </r>
       <r>    76.2285     0.0000   144.0000 </r>
       <r>    76.2772     0.0000   144.0000 </r>
       <r>    76.3259     0.0000   144.0000 </r>
       <r>    76.3746     0.0000   144.0000 </r>
       <r>    76.4233     0.0000   144.0000 </r>
       <r>    76.4720     0.0000   144.0000 </r>
       <r>    76.5207     0.0000   144.0000 </r>
       <r>    76.5693     0.0000   144.0000 </r>
       <r>    76.6180     0.0000   144.0000 </r>
       <r>    76.6667     0.0000   144.0000 </r>
       <r>    76.7154     0.0000   144.0000 </r>
       <r>    76.7641     0.0000   144.0000 </r>
       <r>    76.8128     0.0000   144.0000 </r>
       <r>    76.8615     0.0000   144.0000 </r>
       <r>    76.9102     0.0000   144.0000 </r>
       <r>    76.9589     0.0000   144.0000 </r>
       <r>    77.0076     0.0000   144.0000 </r>
       <r>    77.0563     0.0000   144.0000 </r>
       <r>    77.1050     0.0000   144.0000 </r>
       <r>    77.1537     0.0000   144.0000 </r>
       <r>    77.2024     0.0000   144.0000 </r>
       <r>    77.2511     0.0000   144.0000 </r>
       <r>    77.2998     0.0000   144.0000 </r>
       <r>    77.3485     0.0000   144.0000 </r>
       <r>    77.3972     0.0000   144.0000 </r>
       <r>    77.4459     0.0000   144.0000 </r>
       <r>    77.4946     0.0000   144.0000 </r>
       <r>    77.5433     0.0000   144.0000 </r>
       <r>    77.5920     0.0000   144.0000 </r>
       <r>    77.6407     0.0000   144.0000 </r>
       <r>    77.6894     0.0000   144.0000 </r>
       <r>    77.7381     0.0000   144.0000 </r>
       <r>    77.7868     0.0000   144.0000 </r>
       <r>    77.8355     0.0000   144.0000 </r>
       <r>    77.8842     0.0000   144.0000 </r>
       <r>    77.9329     0.0000   144.0000 </r>
       <r>    77.9816     0.0000   144.0000 </r>
       <r>    78.0303     0.0000   144.0000 </r>
       <r>    78.0790     0.0000   144.0000 </r>
       <r>    78.1277     0.0000   144.0000 </r>
       <r>    78.1764     0.0000   144.0000 </r>
       <r>    78.2251     0.0000   144.0000 </r>
      </set>
     </set>
    </array>
   </total>
  </dos>
 </calculation>
 <structure name="finalpos" >
  <crystal>
   <varray name="basis" >
    <v>       0.00000000       2.82685000       2.82685000 </v>
    <v>       2.82685000       0.00000000       2.82685000 </v>
    <v>       2.82685000       2.82685000       0.00000000 </v>
   </varray>
   <i name="volume">     45.17917421 </i>
   <varray name="rec_basis" >
    <v>      -0.17687532       0.17687532       0.17687532 </v>
    <v>       0.17687532      -0.17687532       0.17687532 </v>
    <v>       0.17687532       0.17687532      -0.17687532 </v>
   </varray>
  </crystal>
  <varray name="positions" >
   <v>       0.25000000       0.25000000       0.25000000 </v>
   <v>       0.00000000       0.00000000       0.00000000 </v>
  </varray>
 </structure>
</modeling>
