   3   3   0   0
  0.5188670E+02  0.3190406E-09  0.3190406E-09  0.1765854E-08  0.5000000E-15
  1.000000000000000E-004
  CAR 
 unknown system                          
     20.61473681    -17.92859206  301     -1.85281198      1.00000000
    -17.929  0.0000E+00  0.0000E+00
    -17.800  0.0000E+00  0.0000E+00
    -17.672  0.0000E+00  0.0000E+00
    -17.543  0.0000E+00  0.0000E+00
    -17.415  0.0000E+00  0.0000E+00
    -17.286  0.0000E+00  0.0000E+00
    -17.158  0.0000E+00  0.0000E+00
    -17.029  0.0000E+00  0.0000E+00
    -16.901  0.0000E+00  0.0000E+00
    -16.772  0.0000E+00  0.0000E+00
    -16.644  0.0000E+00  0.0000E+00
    -16.515  0.0000E+00  0.0000E+00
    -16.387  0.6596E-10  0.8475E-11
    -16.258  0.5569E-03  0.7154E-04
    -16.130  0.2013E+00  0.2594E-01
    -16.001  0.5558E+00  0.9735E-01
    -15.873  0.5173E+00  0.1638E+00
    -15.744  0.5071E+00  0.2290E+00
    -15.616  0.7638E+00  0.3271E+00
    -15.488  0.4040E+00  0.3790E+00
    -15.359  0.8908E+00  0.4934E+00
    -15.231  0.4355E+00  0.5494E+00
    -15.102  0.9586E+00  0.6726E+00
    -14.974  0.6592E+00  0.7572E+00
    -14.845  0.1963E+01  0.1009E+01
    -14.717  0.2067E+01  0.1275E+01
    -14.588  0.2728E+01  0.1625E+01
    -14.460  0.2808E+01  0.1986E+01
    -14.331  0.4481E+01  0.2562E+01
    -14.203  0.4311E+01  0.3116E+01
    -14.074  0.4670E+01  0.3716E+01
    -13.946  0.2127E+01  0.3989E+01
    -13.817  0.8641E-01  0.4000E+01
    -13.689  0.8026E-06  0.4000E+01
    -13.560  0.0000E+00  0.4000E+01
    -13.432  0.0000E+00  0.4000E+01
    -13.303  0.0000E+00  0.4000E+01
    -13.175  0.0000E+00  0.4000E+01
    -13.046  0.0000E+00  0.4000E+01
    -12.918  0.0000E+00  0.4000E+01
    -12.789  0.0000E+00  0.4000E+01
    -12.661  0.0000E+00  0.4000E+01
    -12.533  0.0000E+00  0.4000E+01
    -12.404  0.0000E+00  0.4000E+01
    -12.276  0.0000E+00  0.4000E+01
    -12.147  0.0000E+00  0.4000E+01
    -12.019  0.0000E+00  0.4000E+01
    -11.890  0.0000E+00  0.4000E+01
    -11.762  0.0000E+00  0.4000E+01
    -11.633  0.0000E+00  0.4000E+01
    -11.505  0.0000E+00  0.4000E+01
    -11.376  0.0000E+00  0.4000E+01
    -11.248  0.0000E+00  0.4000E+01
    -11.119  0.0000E+00  0.4000E+01
    -10.991  0.0000E+00  0.4000E+01
    -10.862  0.0000E+00  0.4000E+01
    -10.734  0.0000E+00  0.4000E+01
    -10.605  0.0000E+00  0.4000E+01
    -10.477  0.0000E+00  0.4000E+01
    -10.348  0.0000E+00  0.4000E+01
    -10.220  0.0000E+00  0.4000E+01
    -10.091  0.0000E+00  0.4000E+01
     -9.963  0.0000E+00  0.4000E+01
     -9.834  0.0000E+00  0.4000E+01
     -9.706  0.0000E+00  0.4000E+01
     -9.578  0.0000E+00  0.4000E+01
     -9.449  0.0000E+00  0.4000E+01
     -9.321  0.0000E+00  0.4000E+01
     -9.192  0.0000E+00  0.4000E+01
     -9.064  0.0000E+00  0.4000E+01
     -8.935  0.0000E+00  0.4000E+01
     -8.807  0.0000E+00  0.4000E+01
     -8.678  0.0000E+00  0.4000E+01
     -8.550  0.0000E+00  0.4000E+01
     -8.421  0.0000E+00  0.4000E+01
     -8.293  0.0000E+00  0.4000E+01
     -8.164  0.0000E+00  0.4000E+01
     -8.036  0.1518E-07  0.4000E+01
     -7.907  0.8947E-02  0.4001E+01
     -7.779  0.6449E+00  0.4084E+01
     -7.650  0.1210E+01  0.4239E+01
     -7.522  0.1568E+01  0.4441E+01
     -7.393  0.2894E+01  0.4813E+01
     -7.265  0.2841E+01  0.5178E+01
     -7.136  0.4858E+01  0.5802E+01
     -7.008  0.3659E+01  0.6272E+01
     -6.880  0.2564E+01  0.6601E+01
     -6.751  0.9253E+00  0.6720E+01
     -6.623  0.1702E+01  0.6939E+01
     -6.494  0.5207E+00  0.7006E+01
     -6.366  0.5674E+00  0.7079E+01
     -6.237  0.9583E+00  0.7202E+01
     -6.109  0.2081E+01  0.7469E+01
     -5.980  0.4793E+01  0.8085E+01
     -5.852  0.5574E+01  0.8801E+01
     -5.723  0.2553E+01  0.9129E+01
     -5.595  0.1566E+01  0.9330E+01
     -5.466  0.9914E+00  0.9458E+01
     -5.338  0.3291E+01  0.9880E+01
     -5.209  0.5992E+01  0.1065E+02
     -5.081  0.3505E+01  0.1110E+02
     -4.952  0.2807E+01  0.1146E+02
     -4.824  0.1448E+01  0.1165E+02
     -4.695  0.1480E+01  0.1184E+02
     -4.567  0.1119E+01  0.1198E+02
     -4.438  0.2776E+01  0.1234E+02
     -4.310  0.1479E+01  0.1253E+02
     -4.181  0.1842E+01  0.1276E+02
     -4.053  0.2602E+01  0.1310E+02
     -3.925  0.4984E+01  0.1374E+02
     -3.796  0.3847E+01  0.1423E+02
     -3.668  0.3058E+01  0.1463E+02
     -3.539  0.1826E+01  0.1486E+02
     -3.411  0.2210E+01  0.1514E+02
     -3.282  0.2436E+01  0.1546E+02
     -3.154  0.1975E+01  0.1571E+02
     -3.025  0.2702E+01  0.1606E+02
     -2.897  0.3153E+01  0.1646E+02
     -2.768  0.3207E+01  0.1688E+02
     -2.640  0.2142E+01  0.1715E+02
     -2.511  0.2284E+01  0.1744E+02
     -2.383  0.1794E+01  0.1767E+02
     -2.254  0.1203E+01  0.1783E+02
     -2.126  0.1159E+01  0.1798E+02
     -1.997  0.1704E+00  0.1800E+02
     -1.869  0.2919E-04  0.1800E+02
     -1.740  0.6587E-13  0.1800E+02
     -1.612  0.0000E+00  0.1800E+02
     -1.483  0.0000E+00  0.1800E+02
     -1.355  0.0000E+00  0.1800E+02
     -1.226  0.0000E+00  0.1800E+02
     -1.098  0.0000E+00  0.1800E+02
     -0.970  0.0000E+00  0.1800E+02
     -0.841  0.0000E+00  0.1800E+02
     -0.713  0.3252E-10  0.1800E+02
     -0.584  0.5364E-03  0.1800E+02
     -0.456  0.8928E-01  0.1801E+02
     -0.327  0.5344E+00  0.1808E+02
     -0.199  0.5002E+00  0.1814E+02
     -0.070  0.2918E+01  0.1852E+02
      0.058  0.6816E+01  0.1939E+02
      0.187  0.3551E+01  0.1985E+02
      0.315  0.3791E+01  0.2034E+02
      0.444  0.6408E+01  0.2116E+02
      0.572  0.4096E+01  0.2169E+02
      0.701  0.3967E+01  0.2220E+02
      0.829  0.2150E+01  0.2247E+02
      0.958  0.2725E+01  0.2282E+02
      1.086  0.3538E+01  0.2328E+02
      1.215  0.1773E+01  0.2351E+02
      1.343  0.2355E+01  0.2381E+02
      1.472  0.1320E+01  0.2398E+02
      1.600  0.1429E+01  0.2416E+02
      1.729  0.1543E+01  0.2436E+02
      1.857  0.1572E+01  0.2456E+02
      1.985  0.1338E+01  0.2473E+02
      2.114  0.3415E+01  0.2517E+02
      2.242  0.2247E+01  0.2546E+02
      2.371  0.1796E+01  0.2569E+02
      2.499  0.1225E+01  0.2585E+02
      2.628  0.7476E+00  0.2595E+02
      2.756  0.4179E+00  0.2600E+02
      2.885  0.5099E-02  0.2600E+02
      3.013  0.6765E-08  0.2600E+02
      3.142  0.6004E-04  0.2600E+02
      3.270  0.4558E-01  0.2601E+02
      3.399  0.2845E+00  0.2604E+02
      3.527  0.3656E+00  0.2609E+02
      3.656  0.5104E+00  0.2615E+02
      3.784  0.9340E+00  0.2627E+02
      3.913  0.5641E+00  0.2635E+02
      4.041  0.9273E+00  0.2647E+02
      4.170  0.1258E+01  0.2663E+02
      4.298  0.1475E+01  0.2682E+02
      4.427  0.1332E+01  0.2699E+02
      4.555  0.2090E+01  0.2726E+02
      4.683  0.1821E+01  0.2749E+02
      4.812  0.1314E+01  0.2766E+02
      4.940  0.3103E+01  0.2806E+02
      5.069  0.2407E+01  0.2837E+02
      5.197  0.2196E+01  0.2865E+02
      5.326  0.2867E+01  0.2902E+02
      5.454  0.1454E+01  0.2921E+02
      5.583  0.1111E+01  0.2935E+02
      5.711  0.3272E+01  0.2977E+02
      5.840  0.1748E+01  0.2999E+02
      5.968  0.1739E+01  0.3022E+02
      6.097  0.4883E+01  0.3084E+02
      6.225  0.2406E+01  0.3115E+02
      6.354  0.2141E+01  0.3143E+02
      6.482  0.4374E+01  0.3199E+02
      6.611  0.4309E+01  0.3254E+02
      6.739  0.4290E+01  0.3309E+02
      6.868  0.2026E+01  0.3336E+02
      6.996  0.4519E+01  0.3394E+02
      7.125  0.2902E+01  0.3431E+02
      7.253  0.2205E+01  0.3459E+02
      7.382  0.2163E+01  0.3487E+02
      7.510  0.4169E+01  0.3541E+02
      7.638  0.5287E+01  0.3608E+02
      7.767  0.4712E+01  0.3669E+02
      7.895  0.3215E+01  0.3710E+02
      8.024  0.3300E+01  0.3753E+02
      8.152  0.6787E+01  0.3840E+02
      8.281  0.4147E+01  0.3893E+02
      8.409  0.4265E+01  0.3948E+02
      8.538  0.2409E+01  0.3979E+02
      8.666  0.2890E+01  0.4016E+02
      8.795  0.3153E+01  0.4057E+02
      8.923  0.2867E+01  0.4093E+02
      9.052  0.2465E+01  0.4125E+02
      9.180  0.2091E+01  0.4152E+02
      9.309  0.3465E+01  0.4196E+02
      9.437  0.3946E+01  0.4247E+02
      9.566  0.6632E+01  0.4332E+02
      9.694  0.6149E+01  0.4411E+02
      9.823  0.7265E+01  0.4505E+02
      9.951  0.4068E+01  0.4557E+02
     10.080  0.3913E+01  0.4607E+02
     10.208  0.3432E+01  0.4651E+02
     10.337  0.3442E+01  0.4696E+02
     10.465  0.1849E+01  0.4719E+02
     10.593  0.7011E+01  0.4809E+02
     10.722  0.5466E+01  0.4880E+02
     10.850  0.3593E+01  0.4926E+02
     10.979  0.3939E+01  0.4976E+02
     11.107  0.3379E+01  0.5020E+02
     11.236  0.3657E+01  0.5067E+02
     11.364  0.4317E+01  0.5122E+02
     11.493  0.3263E+01  0.5164E+02
     11.621  0.5074E+01  0.5229E+02
     11.750  0.5375E+01  0.5298E+02
     11.878  0.2576E+01  0.5331E+02
     12.007  0.2700E+01  0.5366E+02
     12.135  0.4327E+01  0.5422E+02
     12.264  0.5499E+01  0.5492E+02
     12.392  0.2963E+01  0.5530E+02
     12.521  0.6488E+01  0.5614E+02
     12.649  0.5639E+01  0.5686E+02
     12.778  0.1300E+01  0.5703E+02
     12.906  0.4270E+01  0.5758E+02
     13.035  0.3904E+01  0.5808E+02
     13.163  0.5130E+01  0.5874E+02
     13.292  0.6016E+01  0.5951E+02
     13.420  0.3363E+01  0.5994E+02
     13.548  0.2340E+01  0.6024E+02
     13.677  0.2314E+01  0.6054E+02
     13.805  0.3572E+01  0.6100E+02
     13.934  0.3947E+01  0.6151E+02
     14.062  0.4031E+01  0.6203E+02
     14.191  0.3100E+01  0.6242E+02
     14.319  0.4910E+01  0.6306E+02
     14.448  0.3620E+01  0.6352E+02
     14.576  0.3301E+01  0.6394E+02
     14.705  0.5433E+01  0.6464E+02
     14.833  0.6194E+01  0.6544E+02
     14.962  0.4369E+01  0.6600E+02
     15.090  0.3685E+01  0.6647E+02
     15.219  0.4107E+01  0.6700E+02
     15.347  0.4793E+01  0.6762E+02
     15.476  0.2777E+01  0.6797E+02
     15.604  0.2461E+01  0.6829E+02
     15.733  0.2656E+01  0.6863E+02
     15.861  0.3258E+01  0.6905E+02
     15.990  0.3513E+01  0.6950E+02
     16.118  0.3405E+01  0.6994E+02
     16.246  0.2748E+01  0.7029E+02
     16.375  0.2299E+01  0.7059E+02
     16.503  0.1014E+01  0.7072E+02
     16.632  0.8599E+00  0.7083E+02
     16.760  0.8445E+00  0.7094E+02
     16.889  0.1451E+01  0.7112E+02
     17.017  0.9410E+00  0.7124E+02
     17.146  0.1161E+01  0.7139E+02
     17.274  0.8485E+00  0.7150E+02
     17.403  0.6788E-01  0.7151E+02
     17.531  0.5670E+00  0.7158E+02
     17.660  0.5682E+00  0.7166E+02
     17.788  0.5571E+00  0.7173E+02
     17.917  0.6318E+00  0.7181E+02
     18.045  0.1836E+00  0.7183E+02
     18.174  0.6971E+00  0.7192E+02
     18.302  0.3174E-01  0.7193E+02
     18.431  0.1530E-06  0.7193E+02
     18.559  0.1600E-16  0.7193E+02
     18.688  0.4296E-06  0.7193E+02
     18.816  0.6629E-01  0.7193E+02
     18.945  0.5057E+00  0.7200E+02
     19.073  0.4594E-02  0.7200E+02
     19.201  0.4918E-09  0.7200E+02
     19.330  0.0000E+00  0.7200E+02
     19.458  0.0000E+00  0.7200E+02
     19.587  0.0000E+00  0.7200E+02
     19.715  0.0000E+00  0.7200E+02
     19.844  0.0000E+00  0.7200E+02
     19.972  0.0000E+00  0.7200E+02
     20.101  0.0000E+00  0.7200E+02
     20.229  0.0000E+00  0.7200E+02
     20.358  0.0000E+00  0.7200E+02
     20.486  0.0000E+00  0.7200E+02
     20.615  0.0000E+00  0.7200E+02
