    3    3    1    1
  0.5188670E+02  0.3190406E-09  0.3190406E-09  0.1765854E-08  0.5000000E-15
  1.000000000000000E-004
  CAR 
 unknown system                          
     18     49     36
 
  0.0000000E+00  0.0000000E+00  0.0000000E+00  0.3086420E-02
    1      -16.176623   1.000000
    2      -14.949764   1.000000
    3       -7.694612   1.000000
    4       -4.750457   1.000000
    5       -4.750457   1.000000
    6       -3.841277   1.000000
    7       -3.636135   1.000000
    8       -3.636134   1.000000
    9       -2.116291   1.000000
   10        0.639102   0.000000
   11        0.639103   0.000000
   12        0.876248   0.000000
   13        0.876249   0.000000
   14        3.248657   0.000000
   15        3.563592   0.000000
   16        4.203799   0.000000
   17        4.766714   0.000000
   18        6.054300   0.000000
   19        6.971629   0.000000
   20        7.456727   0.000000
   21        8.868274   0.000000
   22        8.868274   0.000000
   23        9.815098   0.000000
   24       10.427850   0.000000
   25       10.942780   0.000000
   26       10.942781   0.000000
   27       11.811058   0.000000
   28       14.300807   0.000000
   29       14.391971   0.000000
   30       14.391971   0.000000
   31       14.420094   0.000000
   32       14.420094   0.000000
   33       14.795111   0.000000
   34       15.235417   0.000000
   35       17.528471   0.000000
   36       17.638069   0.000000
 
  0.5555556E-01  0.0000000E+00  0.0000000E+00  0.1851852E-01
    1      -16.133332   1.000000
    2      -14.929284   1.000000
    3       -7.643210   1.000000
    4       -4.852717   1.000000
    5       -4.702516   1.000000
    6       -4.148015   1.000000
    7       -3.710501   1.000000
    8       -3.394858   1.000000
    9       -2.138461   1.000000
   10        0.567151   0.000000
   11        0.719346   0.000000
   12        0.743349   0.000000
   13        0.823594   0.000000
   14        3.333502   0.000000
   15        3.623914   0.000000
   16        4.363718   0.000000
   17        4.875275   0.000000
   18        6.110246   0.000000
   19        7.192508   0.000000
   20        7.500023   0.000000
   21        8.716348   0.000000
   22        9.015551   0.000000
   23        9.844818   0.000000
   24       10.495365   0.000000
   25       10.575431   0.000000
   26       10.968373   0.000000
   27       11.775042   0.000000
   28       13.911269   0.000000
   29       14.236240   0.000000
   30       14.339550   0.000000
   31       14.463048   0.000000
   32       14.671132   0.000000
   33       15.100567   0.000000
   34       15.410268   0.000000
   35       17.630058   0.000000
   36       18.129605   0.000000
 
  0.1111111E+00  0.0000000E+00  0.0000000E+00  0.1851852E-01
    1      -16.006252   1.000000
    2      -14.869260   1.000000
    3       -7.498597   1.000000
    4       -5.125419   1.000000
    5       -4.564925   1.000000
    6       -4.563022   1.000000
    7       -3.909048   1.000000
    8       -3.198998   1.000000
    9       -2.223224   1.000000
   10        0.444083   0.000000
   11        0.449689   0.000000
   12        0.682308   0.000000
   13        0.931157   0.000000
   14        3.544952   0.000000
   15        3.801536   0.000000
   16        4.700611   0.000000
   17        5.276301   0.000000
   18        6.273364   0.000000
   19        7.604277   0.000000
   20        7.738035   0.000000
   21        8.406752   0.000000
   22        9.435406   0.000000
   23        9.670472   0.000000
   24       10.149387   0.000000
   25       10.527834   0.000000
   26       11.059950   0.000000
   27       11.710267   0.000000
   28       13.125524   0.000000
   29       13.753784   0.000000
   30       14.153732   0.000000
   31       14.656962   0.000000
   32       15.035465   0.000000
   33       15.858709   0.000000
   34       16.100062   0.000000
   35       17.881691   0.000000
   36       18.854760   0.000000
 
  0.1666667E+00  0.0000000E+00  0.0000000E+00  0.1851852E-01
    1      -15.803875   1.000000
    2      -14.774009   1.000000
    3       -7.295927   1.000000
    4       -5.484299   1.000000
    5       -4.998493   1.000000
    6       -4.345242   1.000000
    7       -4.178458   1.000000
    8       -3.179871   1.000000
    9       -2.408670   1.000000
   10        0.180790   0.000000
   11        0.437504   0.000000
   12        0.492772   0.000000
   13        1.210214   0.000000
   14        3.844418   0.000000
   15        4.088970   0.000000
   16        5.041591   0.000000
   17        5.944792   0.000000
   18        6.528431   0.000000
   19        7.660194   0.000000
   20        8.088414   0.000000
   21        8.197412   0.000000
   22        9.355562   0.000000
   23       10.062920   0.000000
   24       10.294472   0.000000
   25       10.355637   0.000000
   26       11.250959   0.000000
   27       11.673265   0.000000
   28       12.438177   0.000000
   29       13.118508   0.000000
   30       13.985986   0.000000
   31       14.926534   0.000000
   32       15.355198   0.000000
   33       16.444768   0.000000
   34       17.004032   0.000000
   35       17.028310   0.000000
   36       17.600474   0.000000
 
  0.2222222E+00  0.0000000E+00  0.0000000E+00  0.1851852E-01
    1      -15.540929   1.000000
    2      -14.651191   1.000000
    3       -7.120857   1.000000
    4       -5.814649   1.000000
    5       -5.437673   1.000000
    6       -4.467554   1.000000
    7       -4.072163   1.000000
    8       -3.318781   1.000000
    9       -2.689987   1.000000
   10        0.054444   0.000000
   11        0.301165   0.000000
   12        0.615970   0.000000
   13        1.493501   0.000000
   14        4.221668   0.000000
   15        4.474436   0.000000
   16        5.416505   0.000000
   17        6.489605   0.000000
   18        6.813602   0.000000
   19        7.516296   0.000000
   20        7.695784   0.000000
   21        8.356166   0.000000
   22        9.743599   0.000000
   23       10.180223   0.000000
   24       10.575579   0.000000
   25       10.735824   0.000000
   26       11.569336   0.000000
   27       11.586522   0.000000
   28       12.138230   0.000000
   29       12.543646   0.000000
   30       13.974870   0.000000
   31       15.219529   0.000000
   32       15.388976   0.000000
   33       15.398136   0.000000
   34       15.906023   0.000000
   35       16.602511   0.000000
   36       17.097278   0.000000
 
  0.2777778E+00  0.0000000E+00  0.0000000E+00  0.1851852E-01
    1      -15.239585   1.000000
    2      -14.512174   1.000000
    3       -7.123425   1.000000
    4       -5.984330   1.000000
    5       -5.869176   1.000000
    6       -4.739229   1.000000
    7       -3.776921   1.000000
    8       -3.524219   1.000000
    9       -2.963633   1.000000
   10        0.077524   0.000000
   11        0.146632   0.000000
   12        0.922944   0.000000
   13        1.738034   0.000000
   14        4.657516   0.000000
   15        4.934181   0.000000
   16        5.832096   0.000000
   17        6.428062   0.000000
   18        6.778059   0.000000
   19        7.387607   0.000000
   20        7.576861   0.000000
   21        8.839618   0.000000
   22        9.724790   0.000000
   23       10.276433   0.000000
   24       10.876935   0.000000
   25       11.136680   0.000000
   26       11.489773   0.000000
   27       12.015531   0.000000
   28       12.472123   0.000000
   29       12.626552   0.000000
   30       13.775795   0.000000
   31       14.091383   0.000000
   32       14.264638   0.000000
   33       15.151173   0.000000
   34       15.498759   0.000000
   35       16.054971   0.000000
   36       16.592845   0.000000
 
  0.3333333E+00  0.0000000E+00  0.0000000E+00  0.1851852E-01
    1      -14.930910   1.000000
    2      -14.372392   1.000000
    3       -7.330396   1.000000
    4       -6.266595   1.000000
    5       -6.017756   1.000000
    6       -4.969237   1.000000
    7       -3.715572   1.000000
    8       -3.499810   1.000000
    9       -3.084510   1.000000
   10        0.053829   0.000000
   11        0.197160   0.000000
   12        1.261230   0.000000
   13        1.923832   0.000000
   14        5.076067   0.000000
   15        5.405419   0.000000
   16        5.785082   0.000000
   17        6.359780   0.000000
   18        6.487676   0.000000
   19        7.523748   0.000000
   20        7.897028   0.000000
   21        9.192307   0.000000
   22        9.453385   0.000000
   23       10.374786   0.000000
   24       10.504340   0.000000
   25       11.585891   0.000000
   26       11.660247   0.000000
   27       12.524186   0.000000
   28       12.545677   0.000000
   29       12.822023   0.000000
   30       13.449769   0.000000
   31       13.484095   0.000000
   32       13.788705   0.000000
   33       14.675128   0.000000
   34       15.109982   0.000000
   35       15.756636   0.000000
   36       16.755083   0.000000
 
  0.3888889E+00  0.0000000E+00  0.0000000E+00  0.1851852E-01
    1      -14.655813   1.000000
    2      -14.250695   1.000000
    3       -7.587134   1.000000
    4       -6.592188   1.000000
    5       -6.069686   1.000000
    6       -5.142365   1.000000
    7       -3.856116   1.000000
    8       -3.279750   1.000000
    9       -3.003929   1.000000
   10        0.024783   0.000000
   11        0.357210   0.000000
   12        1.545870   0.000000
   13        2.048466   0.000000
   14        4.855261   0.000000
   15        5.699106   0.000000
   16        5.714503   0.000000
   17        6.494957   0.000000
   18        6.886899   0.000000
   19        7.838617   0.000000
   20        8.102915   0.000000
   21        9.163085   0.000000
   22        9.381243   0.000000
   23        9.826525   0.000000
   24       10.579026   0.000000
   25       11.280429   0.000000
   26       11.314153   0.000000
   27       11.990252   0.000000
   28       12.540937   0.000000
   29       13.063334   0.000000
   30       13.271488   0.000000
   31       13.942338   0.000000
   32       14.493070   0.000000
   33       14.687062   0.000000
   34       14.969179   0.000000
   35       15.991817   0.000000
   36       16.010992   0.000000
 
  0.4444444E+00  0.0000000E+00  0.0000000E+00  0.1851852E-01
    1      -14.461900   1.000000
    2      -14.166938   1.000000
    3       -7.780832   1.000000
    4       -6.807065   1.000000
    5       -6.146071   1.000000
    6       -5.249476   1.000000
    7       -3.938414   1.000000
    8       -3.142248   1.000000
    9       -2.837884   1.000000
   10        0.034286   0.000000
   11        0.503297   0.000000
   12        1.724429   0.000000
   13        2.118351   0.000000
   14        4.284983   0.000000
   15        5.811089   0.000000
   16        6.012890   0.000000
   17        6.753570   0.000000
   18        7.445786   0.000000
   19        8.130621   0.000000
   20        8.137810   0.000000
   21        9.177378   0.000000
   22        9.438997   0.000000
   23        9.505565   0.000000
   24        9.834434   0.000000
   25       10.730889   0.000000
   26       10.859583   0.000000
   27       11.957698   0.000000
   28       12.305967   0.000000
   29       13.273910   0.000000
   30       13.439451   0.000000
   31       13.918017   0.000000
   32       15.093365   0.000000
   33       15.263443   0.000000
   34       15.336233   0.000000
   35       15.899561   0.000000
   36       16.250659   0.000000
 
  0.5000000E+00  0.0000000E+00  0.0000000E+00  0.9259259E-02
    1      -14.391395   1.000000
    2      -14.136960   1.000000
    3       -7.852322   1.000000
    4       -6.882261   1.000000
    5       -6.181219   1.000000
    6       -5.285693   1.000000
    7       -3.965185   1.000000
    8       -3.096150   1.000000
    9       -2.756821   1.000000
   10        0.043809   0.000000
   11        0.566417   0.000000
   12        1.783261   0.000000
   13        2.140667   0.000000
   14        4.052700   0.000000
   15        5.844237   0.000000
   16        6.155954   0.000000
   17        6.865950   0.000000
   18        7.654563   0.000000
   19        8.173895   0.000000
   20        8.515048   0.000000
   21        8.899029   0.000000
   22        9.299802   0.000000
   23        9.476221   0.000000
   24        9.727684   0.000000
   25       10.311275   0.000000
   26       10.632316   0.000000
   27       12.062850   0.000000
   28       12.333567   0.000000
   29       12.979553   0.000000
   30       13.574944   0.000000
   31       14.017662   0.000000
   32       15.250094   0.000000
   33       15.462233   0.000000
   34       15.682431   0.000000
   35       15.946910   0.000000
   36       16.266748   0.000000
 
  0.5555556E-01  0.5555556E-01  0.0000000E+00  0.1851852E-01
    1      -16.048144   1.000000
    2      -14.889024   1.000000
    3       -7.544937   1.000000
    4       -5.038922   1.000000
    5       -4.610028   1.000000
    6       -4.441547   1.000000
    7       -3.872017   1.000000
    8       -3.217392   1.000000
    9       -2.191902   1.000000
   10        0.458404   0.000000
   11        0.536125   0.000000
   12        0.722011   0.000000
   13        0.875688   0.000000
   14        3.479679   0.000000
   15        3.742906   0.000000
   16        4.610116   0.000000
   17        5.134647   0.000000
   18        6.219895   0.000000
   19        7.575887   0.000000
   20        7.581833   0.000000
   21        8.500516   0.000000
   22        9.275090   0.000000
   23        9.794149   0.000000
   24       10.174192   0.000000
   25       10.549772   0.000000
   26       11.006759   0.000000
   27       11.731089   0.000000
   28       13.417386   0.000000
   29       13.813859   0.000000
   30       14.295158   0.000000
   31       14.495763   0.000000
   32       14.961029   0.000000
   33       15.720459   0.000000
   34       15.807577   0.000000
   35       17.823783   0.000000
   36       18.862767   0.000000
 
  0.1111111E+00  0.5555556E-01  0.0000000E+00  0.3703704E-01
    1      -15.883337   1.000000
    2      -14.811293   1.000000
    3       -7.368838   1.000000
    4       -5.350622   1.000000
    5       -4.813047   1.000000
    6       -4.436461   1.000000
    7       -4.157921   1.000000
    8       -3.103370   1.000000
    9       -2.327905   1.000000
   10        0.263166   0.000000
   11        0.369982   0.000000
   12        0.552814   0.000000
   13        1.140889   0.000000
   14        3.732425   0.000000
   15        3.975788   0.000000
   16        4.927324   0.000000
   17        5.710259   0.000000
   18        6.430938   0.000000
   19        7.669666   0.000000
   20        8.125341   0.000000
   21        8.254015   0.000000
   22        9.311903   0.000000
   23        9.683509   0.000000
   24       10.189829   0.000000
   25       10.543685   0.000000
   26       11.092846   0.000000
   27       11.711200   0.000000
   28       12.856106   0.000000
   29       13.130373   0.000000
   30       14.238839   0.000000
   31       14.659855   0.000000
   32       15.247121   0.000000
   33       16.241909   0.000000
   34       16.965951   0.000000
   35       17.765396   0.000000
   36       18.071116   0.000000
 
  0.1666667E+00  0.5555556E-01  0.0000000E+00  0.3703704E-01
    1      -15.650382   1.000000
    2      -14.701954   1.000000
    3       -7.170754   1.000000
    4       -5.690488   1.000000
    5       -5.218201   1.000000
    6       -4.477045   1.000000
    7       -4.204707   1.000000
    8       -3.147784   1.000000
    9       -2.565999   1.000000
   10        0.061326   0.000000
   11        0.376818   0.000000
   12        0.436772   0.000000
   13        1.438270   0.000000
   14        4.072181   0.000000
   15        4.313599   0.000000
   16        5.279279   0.000000
   17        6.388796   0.000000
   18        6.717587   0.000000
   19        7.613110   0.000000
   20        8.030807   0.000000
   21        8.232885   0.000000
   22        9.449686   0.000000
   23        9.918775   0.000000
   24       10.336283   0.000000
   25       10.733184   0.000000
   26       11.265325   0.000000
   27       11.604880   0.000000
   28       12.525752   0.000000
   29       12.543841   0.000000
   30       14.199089   0.000000
   31       14.881330   0.000000
   32       15.589897   0.000000
   33       16.239520   0.000000
   34       16.417536   0.000000
   35       16.857502   0.000000
   36       17.459969   0.000000
 
  0.2222222E+00  0.5555556E-01  0.0000000E+00  0.3703704E-01
    1      -15.367526   1.000000
    2      -14.570363   1.000000
    3       -7.073855   1.000000
    4       -5.928664   1.000000
    5       -5.649090   1.000000
    6       -4.760971   1.000000
    7       -3.954158   1.000000
    8       -3.320306   1.000000
    9       -2.844555   1.000000
   10       -0.020797   0.000000
   11        0.253389   0.000000
   12        0.670581   0.000000
   13        1.709373   0.000000
   14        4.486022   0.000000
   15        4.740414   0.000000
   16        5.686020   0.000000
   17        6.653924   0.000000
   18        6.938659   0.000000
   19        7.459850   0.000000
   20        7.615092   0.000000
   21        8.578188   0.000000
   22        9.784862   0.000000
   23       10.009080   0.000000
   24       10.641161   0.000000
   25       10.894562   0.000000
   26       11.402687   0.000000
   27       11.581640   0.000000
   28       12.516715   0.000000
   29       12.638818   0.000000
   30       14.245532   0.000000
   31       14.669588   0.000000
   32       14.702550   0.000000
   33       15.315721   0.000000
   34       15.900622   0.000000
   35       16.100112   0.000000
   36       17.142039   0.000000
 
  0.2777778E+00  0.5555556E-01  0.0000000E+00  0.3703704E-01
    1      -15.061101   1.000000
    2      -14.429769   1.000000
    3       -7.194111   1.000000
    4       -6.078261   1.000000
    5       -5.990439   1.000000
    6       -4.981246   1.000000
    7       -3.741203   1.000000
    8       -3.537765   1.000000
    9       -3.010824   1.000000
   10       -0.022278   0.000000
   11        0.228848   0.000000
   12        0.994830   0.000000
   13        1.917828   0.000000
   14        4.939046   0.000000
   15        5.222150   0.000000
   16        6.088840   0.000000
   17        6.264750   0.000000
   18        6.734394   0.000000
   19        7.503673   0.000000
   20        7.766769   0.000000
   21        9.061966   0.000000
   22        9.606411   0.000000
   23       10.116287   0.000000
   24       10.571660   0.000000
   25       11.226776   0.000000
   26       11.541717   0.000000
   27       12.058651   0.000000
   28       13.011669   0.000000
   29       13.089167   0.000000
   30       13.292936   0.000000
   31       13.531819   0.000000
   32       14.366943   0.000000
   33       14.767189   0.000000
   34       15.283846   0.000000
   35       15.977273   0.000000
   36       16.725867   0.000000
 
  0.3333333E+00  0.5555556E-01  0.0000000E+00  0.3703704E-01
    1      -14.766891   1.000000
    2      -14.297362   1.000000
    3       -7.435670   1.000000
    4       -6.459317   1.000000
    5       -6.015540   1.000000
    6       -5.137510   1.000000
    7       -3.734322   1.000000
    8       -3.586994   1.000000
    9       -2.964959   1.000000
   10        0.009760   0.000000
   11        0.306394   0.000000
   12        1.325270   0.000000
   13        2.042945   0.000000
   14        5.167221   0.000000
   15        5.670148   0.000000
   16        5.686417   0.000000
   17        6.562029   0.000000
   18        6.678542   0.000000
   19        7.741519   0.000000
   20        8.067774   0.000000
   21        9.165435   0.000000
   22        9.414718   0.000000
   23        9.777251   0.000000
   24       10.691925   0.000000
   25       11.475946   0.000000
   26       11.691921   0.000000
   27       12.146355   0.000000
   28       12.453782   0.000000
   29       12.790745   0.000000
   30       13.291055   0.000000
   31       13.763607   0.000000
   32       14.133117   0.000000
   33       14.600181   0.000000
   34       15.063686   0.000000
   35       15.979784   0.000000
   36       16.293141   0.000000
 
  0.3888889E+00  0.5555556E-01  0.0000000E+00  0.3703704E-01
    1      -14.529416   1.000000
    2      -14.192856   1.000000
    3       -7.659550   1.000000
    4       -6.745047   1.000000
    5       -6.089974   1.000000
    6       -5.236886   1.000000
    7       -3.875851   1.000000
    8       -3.453771   1.000000
    9       -2.802269   1.000000
   10        0.044277   0.000000
   11        0.444465   0.000000
   12        1.604791   0.000000
   13        2.076216   0.000000
   14        4.599683   0.000000
   15        5.934915   0.000000
   16        5.975173   0.000000
   17        6.696473   0.000000
   18        7.251191   0.000000
   19        8.053500   0.000000
   20        8.159859   0.000000
   21        8.972625   0.000000
   22        9.482209   0.000000
   23        9.483332   0.000000
   24       10.326719   0.000000
   25       10.990352   0.000000
   26       11.205290   0.000000
   27       11.953468   0.000000
   28       12.379830   0.000000
   29       13.111148   0.000000
   30       13.242205   0.000000
   31       13.955275   0.000000
   32       14.507651   0.000000
   33       14.798486   0.000000
   34       15.188513   0.000000
   35       16.119522   0.000000
   36       16.144368   0.000000
 
  0.4444444E+00  0.5555556E-01  0.0000000E+00  0.3703704E-01
    1      -14.394947   1.000000
    2      -14.134803   1.000000
    3       -7.790165   1.000000
    4       -6.898258   1.000000
    5       -6.156230   1.000000
    6       -5.285167   1.000000
    7       -3.948658   1.000000
    8       -3.370490   1.000000
    9       -2.666420   1.000000
   10        0.059164   0.000000
   11        0.564390   0.000000
   12        1.797304   0.000000
   13        2.035595   0.000000
   14        4.168193   0.000000
   15        6.056910   0.000000
   16        6.256761   0.000000
   17        6.870619   0.000000
   18        7.679254   0.000000
   19        8.192761   0.000000
   20        8.344381   0.000000
   21        8.915190   0.000000
   22        9.224271   0.000000
   23        9.534117   0.000000
   24        9.777042   0.000000
   25       10.599626   0.000000
   26       10.674911   0.000000
   27       12.148567   0.000000
   28       12.240126   0.000000
   29       13.169565   0.000000
   30       13.203096   0.000000
   31       14.041651   0.000000
   32       14.932737   0.000000
   33       15.008194   0.000000
   34       15.533902   0.000000
   35       16.071582   0.000000
   36       16.308737   0.000000
 
  0.1111111E+00  0.1111111E+00  0.0000000E+00  0.1851852E-01
    1      -15.687745   1.000000
    2      -14.719248   1.000000
    3       -7.190575   1.000000
    4       -5.637292   1.000000
    5       -5.091168   1.000000
    6       -4.566621   1.000000
    7       -4.260128   1.000000
    8       -3.034286   1.000000
    9       -2.520246   1.000000
   10        0.062794   0.000000
   11        0.329945   0.000000
   12        0.399787   0.000000
   13        1.444015   0.000000
   14        4.025062   0.000000
   15        4.260020   0.000000
   16        5.240331   0.000000
   17        6.365750   0.000000
   18        6.680969   0.000000
   19        7.656787   0.000000
   20        8.210578   0.000000
   21        8.340284   0.000000
   22        9.118750   0.000000
   23        9.690308   0.000000
   24       10.240394   0.000000
   25       10.836198   0.000000
   26       11.149963   0.000000
   27       11.617664   0.000000
   28       12.428249   0.000000
   29       12.842700   0.000000
   30       14.408473   0.000000
   31       14.629480   0.000000
   32       15.562177   0.000000
   33       16.803107   0.000000
   34       17.104384   0.000000
   35       17.208754   0.000000
   36       17.228510   0.000000
 
  0.1666667E+00  0.1111111E+00  0.0000000E+00  0.3703704E-01
    1      -15.434132   1.000000
    2      -14.600377   1.000000
    3       -7.050337   1.000000
    4       -5.874495   1.000000
    5       -5.433959   1.000000
    6       -4.942191   1.000000
    7       -4.086278   1.000000
    8       -3.095761   1.000000
    9       -2.765382   1.000000
   10       -0.090307   0.000000
   11        0.310824   0.000000
   12        0.431732   0.000000
   13        1.742868   0.000000
   14        4.406900   0.000000
   15        4.642994   0.000000
   16        5.628402   0.000000
   17        6.899150   0.000000
   18        6.981857   0.000000
   19        7.560887   0.000000
   20        7.960159   0.000000
   21        8.375268   0.000000
   22        9.511409   0.000000
   23        9.640539   0.000000
   24       10.267534   0.000000
   25       10.887754   0.000000
   26       11.280446   0.000000
   27       11.393733   0.000000
   28       12.506589   0.000000
   29       12.931506   0.000000
   30       14.568280   0.000000
   31       14.674684   0.000000
   32       15.562557   0.000000
   33       15.750666   0.000000
   34       16.133526   0.000000
   35       16.515073   0.000000
   36       16.801171   0.000000
 
  0.2222222E+00  0.1111111E+00  0.0000000E+00  0.3703704E-01
    1      -15.144378   1.000000
    2      -14.465564   1.000000
    3       -7.078223   1.000000
    4       -5.949444   1.000000
    5       -5.879816   1.000000
    6       -5.156621   1.000000
    7       -3.992815   1.000000
    8       -3.277764   1.000000
    9       -2.936801   1.000000
   10       -0.138420   0.000000
   11        0.297449   0.000000
   12        0.672475   0.000000
   13        1.979349   0.000000
   14        4.856095   0.000000
   15        5.104308   0.000000
   16        6.083444   0.000000
   17        6.641014   0.000000
   18        7.111427   0.000000
   19        7.695236   0.000000
   20        7.765090   0.000000
   21        8.796726   0.000000
   22        9.702967   0.000000
   23        9.751819   0.000000
   24       10.232904   0.000000
   25       10.544710   0.000000
   26       11.510781   0.000000
   27       11.803967   0.000000
   28       12.968372   0.000000
   29       13.031073   0.000000
   30       14.034399   0.000000
   31       14.225261   0.000000
   32       14.837460   0.000000
   33       15.252119   0.000000
   34       15.337296   0.000000
   35       16.001379   0.000000
   36       16.265925   0.000000
 
  0.2777778E+00  0.1111111E+00  0.0000000E+00  0.3703704E-01
    1      -14.848952   1.000000
    2      -14.329703   1.000000
    3       -7.260960   1.000000
    4       -6.328675   1.000000
    5       -5.935688   1.000000
    6       -5.255968   1.000000
    7       -3.985577   1.000000
    8       -3.512999   1.000000
    9       -2.925035   1.000000
   10       -0.063306   0.000000
   11        0.326113   0.000000
   12        0.981795   0.000000
   13        2.122149   0.000000
   14        5.286425   0.000000
   15        5.604506   0.000000
   16        6.026093   0.000000
   17        6.602096   0.000000
   18        6.948611   0.000000
   19        7.844651   0.000000
   20        8.034979   0.000000
   21        8.978827   0.000000
   22        9.562353   0.000000
   23        9.589213   0.000000
   24       10.488822   0.000000
   25       11.035079   0.000000
   26       11.734202   0.000000
   27       12.227470   0.000000
   28       12.561909   0.000000
   29       12.908502   0.000000
   30       13.315621   0.000000
   31       13.586509   0.000000
   32       14.264107   0.000000
   33       15.132484   0.000000
   34       15.276152   0.000000
   35       15.620510   0.000000
   36       15.906870   0.000000
 
  0.3333333E+00  0.1111111E+00  0.0000000E+00  0.3703704E-01
    1      -14.587220   1.000000
    2      -14.211128   1.000000
    3       -7.468459   1.000000
    4       -6.696792   1.000000
    5       -5.986511   1.000000
    6       -5.290581   1.000000
    7       -3.953691   1.000000
    8       -3.735787   1.000000
    9       -2.783341   1.000000
   10        0.052080   0.000000
   11        0.406165   0.000000
   12        1.290307   0.000000
   13        2.157704   0.000000
   14        5.037286   0.000000
   15        6.042012   0.000000
   16        6.072874   0.000000
   17        6.921936   0.000000
   18        7.165687   0.000000
   19        8.089850   0.000000
   20        8.258598   0.000000
   21        8.596803   0.000000
   22        9.534340   0.000000
   23        9.557409   0.000000
   24       10.690002   0.000000
   25       11.204729   0.000000
   26       11.508017   0.000000
   27       12.134592   0.000000
   28       12.214767   0.000000
   29       12.891245   0.000000
   30       12.928557   0.000000
   31       13.349569   0.000000
   32       14.381051   0.000000
   33       14.608382   0.000000
   34       15.173998   0.000000
   35       15.688381   0.000000
   36       15.852798   0.000000
 
  0.3888889E+00  0.1111111E+00  0.0000000E+00  0.3703704E-01
    1      -14.403860   1.000000
    2      -14.129351   1.000000
    3       -7.620143   1.000000
    4       -6.936693   1.000000
    5       -6.080218   1.000000
    6       -5.292187   1.000000
    7       -3.895349   1.000000
    8       -3.894668   1.000000
    9       -2.614117   1.000000
   10        0.070477   0.000000
   11        0.573834   0.000000
   12        1.548145   0.000000
   13        2.100983   0.000000
   14        4.481559   0.000000
   15        6.452857   0.000000
   16        6.465606   0.000000
   17        7.002022   0.000000
   18        7.734932   0.000000
   19        8.104573   0.000000
   20        8.289032   0.000000
   21        8.548526   0.000000
   22        9.470006   0.000000
   23        9.626661   0.000000
   24       10.107495   0.000000
   25       10.882240   0.000000
   26       11.028255   0.000000
   27       12.050871   0.000000
   28       12.179671   0.000000
   29       12.815671   0.000000