       N       E                     dE             d eps       ncg     rms          rms(c)
DAV:   1    -0.942082991774E+01   -0.94208E+01   -0.39155E+03  8532   0.139E+02
DAV:   2    -0.196926991130E+02   -0.10272E+02   -0.10271E+02 12420   0.228E+01
DAV:   3    -0.197087491104E+02   -0.16050E-01   -0.16049E-01  8748   0.110E+00
DAV:   4    -0.197087825578E+02   -0.33447E-04   -0.33447E-04 16668   0.494E-02
DAV:   5    -0.197087825580E+02   -0.26353E-09   -0.27288E-09  8640   0.131E-04    0.548E+00
DAV:   6    -0.188117420863E+02    0.89704E+00   -0.87262E-01 12492   0.148E+00    0.289E+00
DAV:   7    -0.184667202837E+02    0.34502E+00   -0.10245E+00 12240   0.156E+00    0.492E-01
DAV:   8    -0.184564165862E+02    0.10304E-01   -0.61823E-03 13212   0.165E-01    0.795E-02
DAV:   9    -0.184533538693E+02    0.30627E-02   -0.19128E-03 12816   0.533E-02    0.735E-02
DAV:  10    -0.184506679750E+02    0.26859E-02   -0.19100E-03 10332   0.503E-02    0.332E-02
DAV:  11    -0.184519033519E+02   -0.12354E-02   -0.40219E-04 10548   0.236E-02    0.165E-02
DAV:  12    -0.184531782232E+02   -0.12749E-02   -0.25997E-04 12276   0.187E-02    0.110E-02
DAV:  13    -0.184536115082E+02   -0.43328E-03   -0.67077E-05 11088   0.875E-03    0.224E-03
DAV:  14    -0.184536493805E+02   -0.37872E-04   -0.18556E-06 11232   0.155E-03    0.131E-03
DAV:  15    -0.184536566788E+02   -0.72983E-05   -0.56966E-07 10008   0.653E-04    0.122E-03
DAV:  16    -0.184536571870E+02   -0.50815E-06   -0.16871E-08  9936   0.168E-04    0.121E-03
DAV:  17    -0.184536571877E+02   -0.72981E-09   -0.13780E-10 10260   0.148E-05
   1 F= -.18453657E+02 E0= -.18453265E+02  d E =-.783597E-03
