 vasp.6.3.1 04May22 (build May 08 2022 09:27:05) complex                        
  
 executed on             LinuxIFC date 2023.10.10  16:29:14
 serial version


--------------------------------------------------------------------------------------------------------


 INCAR:
   SYSTEM = PbTiO3
   ISMEAR = -5
   LASPH = T
   PREC = Accurate
   ADDGRID = .TRUE.
   LREAL = F
   EDIFF = 1E-9
   IBRION = 8
   LEPSILON = .TRUE.

 POTCAR:    PAW_PBE Al 04Jan2001                  
 POTCAR:    PAW_PBE N 08Apr2002                   
 POTCAR:    PAW_PBE Al 04Jan2001                  
   SHA256 =  17880443556af62b473fe41b62a467bd001ad55d2cabe504a3f22e34d4e9db96 Al/POTCAR             
   COPYR  = (c) Copyright 04Jan2001 Georg Kresse                                                    
   COPYR  = This file is part of the software VASP. Any use, copying, and all other rights are regul
   COPYR  = If you do not have a valid VASP license, you may not use, copy or distribute this file. 
   VRHFIN =Al: s2p1                                                                                 
   LEXCH  = PE                                                                                      
   EATOM  =    53.5387 eV,    3.9350 Ry                                                             
                                                                                                    
   TITEL  = PAW_PBE Al 04Jan2001                                                                    
   LULTRA =        F    use ultrasoft PP ?                                                          
   IUNSCR =        1    unscreen: 0-lin 1-nonlin 2-no                                               
   RPACOR =    1.500    partial core radius                                                         
   POMASS =   26.981; ZVAL   =    3.000    mass and valenz                                          
   RCORE  =    1.900    outmost cutoff radius                                                       
   RWIGS  =    2.650; RWIGS  =    1.402    wigner-seitz radius (au A)                               
   ENMAX  =  240.300; ENMIN  =  180.225 eV                                                          
   ICORE  =        2    local potential                                                             
   LCOR   =        T    correct aug charges                                                         
   LPAW   =        T    paw PP                                                                      
   EAUG   =  291.052                                                                                
   DEXC   =    0.000                                                                                
   RMAX   =    1.939    core radius for proj-oper                                                   
   RAUG   =    1.300    factor for augmentation sphere                                              
   RDEP   =    1.966    radius for radial grids                                                     
   RDEPT  =    1.856    core radius for aug-charge                                                  
                                                                                                    
   Atomic configuration                                                                             
    6 entries                                                                                       
     n  l   j            E        occ.                                                              
     1  0  0.50     -1511.1048   2.0000                                                             
     2  0  0.50      -108.1629   2.0000                                                             
     2  1  1.50       -69.6402   6.0000                                                             
     3  0  0.50        -7.7528   2.0000                                                             
     3  1  1.50        -2.7121   1.0000                                                             
     3  2  2.50        -2.7212   0.0000                                                             
   Description                                                                                      
     l       E           TYP  RCUT    TYP  RCUT                                                     
     0     -7.7528455     23  1.900                                                                 
     0     -3.3096929     23  1.900                                                                 
     1     -2.7120682     23  1.900                                                                 
     1     13.6058260     23  1.900                                                                 
     2     -2.7211652      7  1.900                                                                 
  local pseudopotential read in
  partial core-charges read in
  partial kinetic energy density read in
  atomic valenz-charges read in
  non local Contribution for L=           0  read in
    real space projection operators read in
  non local Contribution for L=           0  read in
    real space projection operators read in
  non local Contribution for L=           1  read in
    real space projection operators read in
  non local Contribution for L=           1  read in
    real space projection operators read in
    PAW grid and wavefunctions read in
 
   number of l-projection  operators is LMAX  =           4
   number of lm-projection operators is LMMAX =           8
 
 POTCAR:    PAW_PBE N 08Apr2002                   
   SHA256 =  e053789ff3a61a86a1b75d8a110fcc91f86041011e7b0817c7c99e4e8a6349d7 N/POTCAR              
   COPYR  = (c) Copyright 08Apr2002 Georg Kresse                                                    
   COPYR  = This file is part of the software VASP. Any use, copying, and all other rights are regul
   COPYR  = If you do not have a valid VASP license, you may not use, copy or distribute this file. 
   VRHFIN =N: s2p3                                                                                  
   LEXCH  = PE                                                                                      
   EATOM  =   264.5486 eV,   19.4438 Ry                                                             
                                                                                                    
   TITEL  = PAW_PBE N 08Apr2002                                                                     
   LULTRA =        F    use ultrasoft PP ?                                                          
   IUNSCR =        1    unscreen: 0-lin 1-nonlin 2-no                                               
   RPACOR =    1.200    partial core radius                                                         
   POMASS =   14.001; ZVAL   =    5.000    mass and valenz                                          
   RCORE  =    1.500    outmost cutoff radius                                                       
   RWIGS  =    1.400; RWIGS  =    0.741    wigner-seitz radius (au A)                               
   ENMAX  =  400.000; ENMIN  =  300.000 eV                                                          
   ICORE  =        2    local potential                                                             
   LCOR   =        T    correct aug charges                                                         
   LPAW   =        T    paw PP                                                                      
   EAUG   =  627.112                                                                                
   DEXC   =    0.000                                                                                
   RMAX   =    1.529    core radius for proj-oper                                                   
   RAUG   =    1.300    factor for augmentation sphere                                              
   RDEP   =    1.514    radius for radial grids                                                     
   RDEPT  =    1.338    core radius for aug-charge                                                  
                                                                                                    
   Atomic configuration                                                                             
    4 entries                                                                                       
     n  l   j            E        occ.                                                              
     1  0  0.50      -384.7179   2.0000                                                             
     2  0  0.50       -18.5828   2.0000                                                             
     2  1  0.50        -7.0898   3.0000                                                             
     3  2  1.50        -6.8029   0.0000                                                             
   Description                                                                                      
     l       E           TYP  RCUT    TYP  RCUT                                                     
     0    -18.5828119     23  1.200                                                                 
     0    -13.5018863     23  1.200                                                                 
     1     -7.0897853     23  1.500                                                                 
     1      9.5240782     23  1.500                                                                 
     2     -6.8029130      7  1.500                                                                 
  local pseudopotential read in
  partial core-charges read in
  partial kinetic energy density read in
  atomic valenz-charges read in
  non local Contribution for L=           0  read in
    real space projection operators read in
  non local Contribution for L=           0  read in
    real space projection operators read in
  non local Contribution for L=           1  read in
    real space projection operators read in
  non local Contribution for L=           1  read in
    real space projection operators read in
    PAW grid and wavefunctions read in
 
   number of l-projection  operators is LMAX  =           4
   number of lm-projection operators is LMMAX =           8
 
  PAW_PBE Al 04Jan2001                  :
 energy of atom  1       EATOM=  -53.5387
 kinetic energy error for atom=    0.0005 (will be added to EATOM!!)
  PAW_PBE N 08Apr2002                   :
 energy of atom  2       EATOM= -264.5486
 kinetic energy error for atom=    0.0736 (will be added to EATOM!!)
 
 
 POSCAR: Generated by cif2cell 1.1.5 from COD ref
  positions in direct lattice
  velocities in cartesian coordinates
 exchange correlation table for  LEXCH =        8
   RHO(1)=    0.500       N(1)  =     2000
   RHO(2)=  100.500       N(2)  =     4000
 


--------------------------------------------------------------------------------------------------------


 ion  position               nearest neighbor table
   1  0.333  0.667  0.002-   4 1.89   4 1.89   4 1.89   3 1.90   2 3.07   2 3.07   2 3.07   2 3.07
                             2 3.07   2 3.07
   2  0.667  0.333  0.502-   3 1.89   3 1.89   3 1.89   4 1.90   1 3.07   1 3.07   1 3.07   1 3.07
                             1 3.07   1 3.07
   3  0.333  0.667  0.383-   2 1.89   2 1.89   2 1.89   1 1.90
   4  0.667  0.333  0.883-   1 1.89   1 1.89   1 1.89   2 1.90
 
  LATTYP: Found a hexagonal cell.
 ALAT       =     3.1107748889
 C/A-ratio  =     1.6013051171
  
  Lattice vectors:
  
 A1 = (   2.6940100793,  -1.5553874445,   0.0000000000)
 A2 = (   0.0000000000,   3.1107748889,   0.0000000000)
 A3 = (   0.0000000000,   0.0000000000,   4.9812997477)


Analysis of symmetry for initial positions (statically):
=====================================================================
 Subroutine PRICEL returns:
 Original cell was already a primitive cell.
 

 Routine SETGRP: Setting up the symmetry group for a 
 hexagonal supercell.


 Subroutine GETGRP returns: Found 12 space group operations
 (whereof  6 operations were pure point group operations)
 out of a pool of 24 trial point group operations.


The static configuration has the point symmetry C_3v.
 The point group associated with its full space group is C_6v.


Analysis of symmetry for dynamics (positions and initial velocities):
=====================================================================
 Subroutine PRICEL returns:
 Original cell was already a primitive cell.
 

 Routine SETGRP: Setting up the symmetry group for a 
 hexagonal supercell.


 Subroutine GETGRP returns: Found 12 space group operations
 (whereof  6 operations were pure point group operations)
 out of a pool of 24 trial point group operations.


The dynamic configuration has the point symmetry C_3v.
 The point group associated with its full space group is C_6v.


 Subroutine INISYM returns: Found 12 space group operations
 (whereof  6 operations are pure point group operations),
 and found     1 'primitive' translations


----------------------------------------------------------------------------------------

                                     Primitive cell                                     

  volume of cell :      41.7456

  direct lattice vectors                    reciprocal lattice vectors
     2.694010079 -1.555387444  0.000000000     0.371193860  0.000000000  0.000000000
     0.000000000  3.110774889  0.000000000     0.185596930  0.321463312  0.000000000
     0.000000000  0.000000000  4.981299748     0.000000000  0.000000000  0.200750818

  length of vectors
     3.110774889  3.110774889  4.981299748     0.371193860  0.371193860  0.200750818

  position of ions in fractional coordinates (direct lattice)
     0.333333333  0.666666667  0.001606537
     0.666666667  0.333333333  0.501606537
     0.333333333  0.666666667  0.383393463
     0.666666667  0.333333333  0.883393463

  ion indices of the primitive-cell ions
   primitive index   ion index
                 1           1
                 2           2
                 3           3
                 4           4

----------------------------------------------------------------------------------------

 
 
 KPOINTS: K-Spacing Value to Generate K-Mesh: 0.03

Automatic generation of k-mesh.
 Grid dimensions read from file:
 generate k-points for:   15   15    7

 Generating k-lattice:

  Cartesian coordinates                     Fractional coordinates (reciprocal lattice)
     0.024746257  0.000000000  0.000000000     0.066666667  0.000000000  0.000000000
     0.012373129  0.021430887  0.000000000     0.000000000  0.066666667  0.000000000
     0.000000000  0.000000000  0.028678688     0.000000000  0.000000000  0.142857143

  Length of vectors
     0.024746257  0.024746257  0.028678688

  Shift w.r.t. Gamma in fractional coordinates (k-lattice)
     0.000000000  0.000000000  0.000000000

 TETIRR: Found   1492 inequivalent tetrahedra from     9450
 
 Subroutine IBZKPT returns following result:
 ===========================================
 
 Found    108 irreducible k-points:
 
 Following reciprocal coordinates:
            Coordinates               Weight
  0.000000  0.000000  0.000000      1.000000
  0.066667  0.000000  0.000000      6.000000
  0.133333  0.000000  0.000000      6.000000
  0.200000  0.000000  0.000000      6.000000
  0.266667  0.000000  0.000000      6.000000
  0.333333  0.000000  0.000000      6.000000
  0.400000  0.000000  0.000000      6.000000
  0.466667  0.000000  0.000000      6.000000
  0.066667  0.066667  0.000000      6.000000
  0.133333  0.066667  0.000000     12.000000
  0.200000  0.066667  0.000000     12.000000
  0.266667  0.066667  0.000000     12.000000
  0.333333  0.066667  0.000000     12.000000
  0.400000  0.066667  0.000000     12.000000
  0.466667  0.066667  0.000000      6.000000
  0.133333  0.133333  0.000000      6.000000
  0.200000  0.133333  0.000000     12.000000
  0.266667  0.133333  0.000000     12.000000
  0.333333  0.133333  0.000000     12.000000
  0.400000  0.133333  0.000000     12.000000
  0.200000  0.200000  0.000000      6.000000
  0.266667  0.200000  0.000000     12.000000
  0.333333  0.200000  0.000000     12.000000
  0.400000  0.200000  0.000000      6.000000
  0.266667  0.266667  0.000000      6.000000
  0.333333  0.266667  0.000000     12.000000
  0.333333  0.333333  0.000000      2.000000
  0.000000  0.000000  0.142857      2.000000
  0.066667  0.000000  0.142857     12.000000
  0.133333  0.000000  0.142857     12.000000
  0.200000  0.000000  0.142857     12.000000
  0.266667  0.000000  0.142857     12.000000
  0.333333  0.000000  0.142857     12.000000
  0.400000  0.000000  0.142857     12.000000
  0.466667  0.000000  0.142857     12.000000
  0.066667  0.066667  0.142857     12.000000
  0.133333  0.066667  0.142857     24.000000
  0.200000  0.066667  0.142857     24.000000
  0.266667  0.066667  0.142857     24.000000
  0.333333  0.066667  0.142857     24.000000
  0.400000  0.066667  0.142857     24.000000
  0.466667  0.066667  0.142857     12.000000
  0.133333  0.133333  0.142857     12.000000
  0.200000  0.133333  0.142857     24.000000
  0.266667  0.133333  0.142857     24.000000
  0.333333  0.133333  0.142857     24.000000
  0.400000  0.133333  0.142857     24.000000
  0.200000  0.200000  0.142857     12.000000
  0.266667  0.200000  0.142857     24.000000
  0.333333  0.200000  0.142857     24.000000
  0.400000  0.200000  0.142857     12.000000
  0.266667  0.266667  0.142857     12.000000
  0.333333  0.266667  0.142857     24.000000
  0.333333  0.333333  0.142857      4.000000
  0.000000  0.000000  0.285714      2.000000
  0.066667  0.000000  0.285714     12.000000
  0.133333  0.000000  0.285714     12.000000
  0.200000  0.000000  0.285714     12.000000
  0.266667  0.000000  0.285714     12.000000
  0.333333  0.000000  0.285714     12.000000
  0.400000  0.000000  0.285714     12.000000
  0.466667  0.000000  0.285714     12.000000
  0.066667  0.066667  0.285714     12.000000
  0.133333  0.066667  0.285714     24.000000
  0.200000  0.066667  0.285714     24.000000
  0.266667  0.066667  0.285714     24.000000
  0.333333  0.066667  0.285714     24.000000
  0.400000  0.066667  0.285714     24.000000
  0.466667  0.066667  0.285714     12.000000
  0.133333  0.133333  0.285714     12.000000
  0.200000  0.133333  0.285714     24.000000
  0.266667  0.133333  0.285714     24.000000
  0.333333  0.133333  0.285714     24.000000
  0.400000  0.133333  0.285714     24.000000
  0.200000  0.200000  0.285714     12.000000
  0.266667  0.200000  0.285714     24.000000
  0.333333  0.200000  0.285714     24.000000
  0.400000  0.200000  0.285714     12.000000
  0.266667  0.266667  0.285714     12.000000
  0.333333  0.266667  0.285714     24.000000
  0.333333  0.333333  0.285714      4.000000
  0.000000  0.000000  0.428571      2.000000
  0.066667  0.000000  0.428571     12.000000
  0.133333  0.000000  0.428571     12.000000
  0.200000  0.000000  0.428571     12.000000
  0.266667  0.000000  0.428571     12.000000
  0.333333  0.000000  0.428571     12.000000
  0.400000  0.000000  0.428571     12.000000
  0.466667  0.000000  0.428571     12.000000
  0.066667  0.066667  0.428571     12.000000
  0.133333  0.066667  0.428571     24.000000
  0.200000  0.066667  0.428571     24.000000
  0.266667  0.066667  0.428571     24.000000
  0.333333  0.066667  0.428571     24.000000
  0.400000  0.066667  0.428571     24.000000
  0.466667  0.066667  0.428571     12.000000
  0.133333  0.133333  0.428571     12.000000
  0.200000  0.133333  0.428571     24.000000
  0.266667  0.133333  0.428571     24.000000
  0.333333  0.133333  0.428571     24.000000
  0.400000  0.133333  0.428571     24.000000
  0.200000  0.200000  0.428571     12.000000
  0.266667  0.200000  0.428571     24.000000
  0.333333  0.200000  0.428571     24.000000
  0.400000  0.200000  0.428571     12.000000
  0.266667  0.266667  0.428571     12.000000
  0.333333  0.266667  0.428571     24.000000
  0.333333  0.333333  0.428571      4.000000
 
 Following cartesian coordinates:
            Coordinates               Weight
  0.000000  0.000000  0.000000      1.000000
  0.076986  0.000000  0.000000      6.000000
  0.153971  0.000000  0.000000      6.000000
  0.230957  0.000000  0.000000      6.000000
  0.307942  0.000000  0.000000      6.000000
  0.384928  0.000000  0.000000      6.000000
  0.461914  0.000000  0.000000      6.000000
  0.538899  0.000000  0.000000      6.000000
  0.115478  0.066671  0.000000      6.000000
  0.192464  0.066671  0.000000     12.000000
  0.269450  0.066671  0.000000     12.000000
  0.346435  0.066671  0.000000     12.000000
  0.423421  0.066671  0.000000     12.000000
  0.500406  0.066671  0.000000     12.000000
  0.577392  0.066671  0.000000      6.000000
  0.230957  0.133343  0.000000      6.000000
  0.307942  0.133343  0.000000     12.000000
  0.384928  0.133343  0.000000     12.000000
  0.461914  0.133343  0.000000     12.000000
  0.538899  0.133343  0.000000     12.000000
  0.346435  0.200014  0.000000      6.000000
  0.423421  0.200014  0.000000     12.000000
  0.500406  0.200014  0.000000     12.000000
  0.577392  0.200014  0.000000      6.000000
  0.461914  0.266686  0.000000      6.000000
  0.538899  0.266686  0.000000     12.000000
  0.577392  0.333357  0.000000      2.000000
  0.000000  0.000000  0.089219      2.000000
  0.076986  0.000000  0.089219     12.000000
  0.153971  0.000000  0.089219     12.000000
  0.230957  0.000000  0.089219     12.000000
  0.307942  0.000000  0.089219     12.000000
  0.384928  0.000000  0.089219     12.000000
  0.461914  0.000000  0.089219     12.000000
  0.538899  0.000000  0.089219     12.000000
  0.115478  0.066671  0.089219     12.000000
  0.192464  0.066671  0.089219     24.000000
  0.269450  0.066671  0.089219     24.000000
  0.346435  0.066671  0.089219     24.000000
  0.423421  0.066671  0.089219     24.000000
  0.500406  0.066671  0.089219     24.000000
  0.577392  0.066671  0.089219     12.000000
  0.230957  0.133343  0.089219     12.000000
  0.307942  0.133343  0.089219     24.000000
  0.384928  0.133343  0.089219     24.000000
  0.461914  0.133343  0.089219     24.000000
  0.538899  0.133343  0.089219     24.000000
  0.346435  0.200014  0.089219     12.000000
  0.423421  0.200014  0.089219     24.000000
  0.500406  0.200014  0.089219     24.000000
  0.577392  0.200014  0.089219     12.000000
  0.461914  0.266686  0.089219     12.000000
  0.538899  0.266686  0.089219     24.000000
  0.577392  0.333357  0.089219      4.000000
  0.000000  0.000000  0.178439      2.000000
  0.076986  0.000000  0.178439     12.000000
  0.153971  0.000000  0.178439     12.000000
  0.230957  0.000000  0.178439     12.000000
  0.307942  0.000000  0.178439     12.000000
  0.384928  0.000000  0.178439     12.000000
  0.461914  0.000000  0.178439     12.000000
  0.538899  0.000000  0.178439     12.000000
  0.115478  0.066671  0.178439     12.000000
  0.192464  0.066671  0.178439     24.000000
  0.269450  0.066671  0.178439     24.000000
  0.346435  0.066671  0.178439     24.000000
  0.423421  0.066671  0.178439     24.000000
  0.500406  0.066671  0.178439     24.000000
  0.577392  0.066671  0.178439     12.000000
  0.230957  0.133343  0.178439     12.000000
  0.307942  0.133343  0.178439     24.000000
  0.384928  0.133343  0.178439     24.000000
  0.461914  0.133343  0.178439     24.000000
  0.538899  0.133343  0.178439     24.000000
  0.346435  0.200014  0.178439     12.000000
  0.423421  0.200014  0.178439     24.000000
  0.500406  0.200014  0.178439     24.000000
  0.577392  0.200014  0.178439     12.000000
  0.461914  0.266686  0.178439     12.000000
  0.538899  0.266686  0.178439     24.000000
  0.577392  0.333357  0.178439      4.000000
  0.000000  0.000000  0.267658      2.000000
  0.076986  0.000000  0.267658     12.000000
  0.153971  0.000000  0.267658     12.000000
  0.230957  0.000000  0.267658     12.000000
  0.307942  0.000000  0.267658     12.000000
  0.384928  0.000000  0.267658     12.000000
  0.461914  0.000000  0.267658     12.000000
  0.538899  0.000000  0.267658     12.000000
  0.115478  0.066671  0.267658     12.000000
  0.192464  0.066671  0.267658     24.000000
  0.269450  0.066671  0.267658     24.000000
  0.346435  0.066671  0.267658     24.000000
  0.423421  0.066671  0.267658     24.000000
  0.500406  0.066671  0.267658     24.000000
  0.577392  0.066671  0.267658     12.000000
  0.230957  0.133343  0.267658     12.000000
  0.307942  0.133343  0.267658     24.000000
  0.384928  0.133343  0.267658     24.000000
  0.461914  0.133343  0.267658     24.000000
  0.538899  0.133343  0.267658     24.000000
  0.346435  0.200014  0.267658     12.000000
  0.423421  0.200014  0.267658     24.000000
  0.500406  0.200014  0.267658     24.000000
  0.577392  0.200014  0.267658     12.000000
  0.461914  0.266686  0.267658     12.000000
  0.538899  0.266686  0.267658     24.000000
  0.577392  0.333357  0.267658      4.000000
 
 
 Subroutine IBZKPT_HF returns following result:
 ==============================================
 
 Found   1575 k-points in 1st BZ
 the following   1575 k-points will be used (e.g. in the exchange kernel)
 Following reciprocal coordinates:   # in IRBZ
  0.000000  0.000000  0.000000    0.00063492   1 t-inv F
  0.066667  0.000000  0.000000    0.00063492   2 t-inv F
  0.133333  0.000000  0.000000    0.00063492   3 t-inv F
  0.200000  0.000000  0.000000    0.00063492   4 t-inv F
  0.266667  0.000000  0.000000    0.00063492   5 t-inv F
  0.333333  0.000000  0.000000    0.00063492   6 t-inv F
  0.400000  0.000000  0.000000    0.00063492   7 t-inv F
  0.466667  0.000000  0.000000    0.00063492   8 t-inv F
  0.066667  0.066667  0.000000    0.00063492   9 t-inv F
  0.133333  0.066667  0.000000    0.00063492  10 t-inv F
  0.200000  0.066667  0.000000    0.00063492  11 t-inv F
  0.266667  0.066667  0.000000    0.00063492  12 t-inv F
  0.333333  0.066667  0.000000    0.00063492  13 t-inv F
  0.400000  0.066667  0.000000    0.00063492  14 t-inv F
  0.466667  0.066667  0.000000    0.00063492  15 t-inv F
  0.133333  0.133333  0.000000    0.00063492  16 t-inv F
  0.200000  0.133333  0.000000    0.00063492  17 t-inv F
  0.266667  0.133333  0.000000    0.00063492  18 t-inv F
  0.333333  0.133333  0.000000    0.00063492  19 t-inv F
  0.400000  0.133333  0.000000    0.00063492  20 t-inv F
  0.200000  0.200000  0.000000    0.00063492  21 t-inv F
  0.266667  0.200000  0.000000    0.00063492  22 t-inv F
  0.333333  0.200000  0.000000    0.00063492  23 t-inv F
  0.400000  0.200000  0.000000    0.00063492  24 t-inv F
  0.266667  0.266667  0.000000    0.00063492  25 t-inv F
  0.333333  0.266667  0.000000    0.00063492  26 t-inv F
  0.333333  0.333333  0.000000    0.00063492  27 t-inv F
  0.000000  0.000000  0.142857    0.00063492  28 t-inv F
  0.066667  0.000000  0.142857    0.00063492  29 t-inv F
  0.133333  0.000000  0.142857    0.00063492  30 t-inv F
  0.200000  0.000000  0.142857    0.00063492  31 t-inv F
  0.266667  0.000000  0.142857    0.00063492  32 t-inv F
  0.333333  0.000000  0.142857    0.00063492  33 t-inv F
  0.400000  0.000000  0.142857    0.00063492  34 t-inv F
  0.466667  0.000000  0.142857    0.00063492  35 t-inv F
  0.066667  0.066667  0.142857    0.00063492  36 t-inv F
  0.133333  0.066667  0.142857    0.00063492  37 t-inv F
  0.200000  0.066667  0.142857    0.00063492  38 t-inv F
  0.266667  0.066667  0.142857    0.00063492  39 t-inv F
  0.333333  0.066667  0.142857    0.00063492  40 t-inv F
  0.400000  0.066667  0.142857    0.00063492  41 t-inv F
  0.466667  0.066667  0.142857    0.00063492  42 t-inv F
  0.133333  0.133333  0.142857    0.00063492  43 t-inv F
  0.200000  0.133333  0.142857    0.00063492  44 t-inv F
  0.266667  0.133333  0.142857    0.00063492  45 t-inv F
  0.333333  0.133333  0.142857    0.00063492  46 t-inv F
  0.400000  0.133333  0.142857    0.00063492  47 t-inv F
  0.200000  0.200000  0.142857    0.00063492  48 t-inv F
  0.266667  0.200000  0.142857    0.00063492  49 t-inv F
  0.333333  0.200000  0.142857    0.00063492  50 t-inv F
  0.400000  0.200000  0.142857    0.00063492  51 t-inv F
  0.266667  0.266667  0.142857    0.00063492  52 t-inv F
  0.333333  0.266667  0.142857    0.00063492  53 t-inv F
  0.333333  0.333333  0.142857    0.00063492  54 t-inv F
  0.000000  0.000000  0.285714    0.00063492  55 t-inv F
  0.066667  0.000000  0.285714    0.00063492  56 t-inv F
  0.133333  0.000000  0.285714    0.00063492  57 t-inv F
  0.200000  0.000000  0.285714    0.00063492  58 t-inv F
  0.266667  0.000000  0.285714    0.00063492  59 t-inv F
  0.333333  0.000000  0.285714    0.00063492  60 t-inv F
  0.400000  0.000000  0.285714    0.00063492  61 t-inv F
  0.466667  0.000000  0.285714    0.00063492  62 t-inv F
  0.066667  0.066667  0.285714    0.00063492  63 t-inv F
  0.133333  0.066667  0.285714    0.00063492  64 t-inv F
  0.200000  0.066667  0.285714    0.00063492  65 t-inv F
  0.266667  0.066667  0.285714    0.00063492  66 t-inv F
  0.333333  0.066667  0.285714    0.00063492  67 t-inv F
  0.400000  0.066667  0.285714    0.00063492  68 t-inv F
  0.466667  0.066667  0.285714    0.00063492  69 t-inv F
  0.133333  0.133333  0.285714    0.00063492  70 t-inv F
  0.200000  0.133333  0.285714    0.00063492  71 t-inv F
  0.266667  0.133333  0.285714    0.00063492  72 t-inv F
  0.333333  0.133333  0.285714    0.00063492  73 t-inv F
  0.400000  0.133333  0.285714    0.00063492  74 t-inv F
  0.200000  0.200000  0.285714    0.00063492  75 t-inv F
  0.266667  0.200000  0.285714    0.00063492  76 t-inv F
  0.333333  0.200000  0.285714    0.00063492  77 t-inv F
  0.400000  0.200000  0.285714    0.00063492  78 t-inv F
  0.266667  0.266667  0.285714    0.00063492  79 t-inv F
  0.333333  0.266667  0.285714    0.00063492  80 t-inv F
  0.333333  0.333333  0.285714    0.00063492  81 t-inv F
  0.000000  0.000000  0.428571    0.00063492  82 t-inv F
  0.066667  0.000000  0.428571    0.00063492  83 t-inv F
  0.133333  0.000000  0.428571    0.00063492  84 t-inv F
  0.200000  0.000000  0.428571    0.00063492  85 t-inv F
  0.266667  0.000000  0.428571    0.00063492  86 t-inv F
  0.333333  0.000000  0.428571    0.00063492  87 t-inv F
  0.400000  0.000000  0.428571    0.00063492  88 t-inv F
  0.466667  0.000000  0.428571    0.00063492  89 t-inv F
  0.066667  0.066667  0.428571    0.00063492  90 t-inv F
  0.133333  0.066667  0.428571    0.00063492  91 t-inv F
  0.200000  0.066667  0.428571    0.00063492  92 t-inv F
  0.266667  0.066667  0.428571    0.00063492  93 t-inv F
  0.333333  0.066667  0.428571    0.00063492  94 t-inv F
  0.400000  0.066667  0.428571    0.00063492  95 t-inv F
  0.466667  0.066667  0.428571    0.00063492  96 t-inv F
  0.133333  0.133333  0.428571    0.00063492  97 t-inv F
  0.200000  0.133333  0.428571    0.00063492  98 t-inv F
  0.266667  0.133333  0.428571    0.00063492  99 t-inv F
  0.333333  0.133333  0.428571    0.00063492 100 t-inv F
  0.400000  0.133333  0.428571    0.00063492 101 t-inv F
  0.200000  0.200000  0.428571    0.00063492 102 t-inv F
  0.266667  0.200000  0.428571    0.00063492 103 t-inv F
  0.333333  0.200000  0.428571    0.00063492 104 t-inv F
  0.400000  0.200000  0.428571    0.00063492 105 t-inv F
  0.266667  0.266667  0.428571    0.00063492 106 t-inv F
  0.333333  0.266667  0.428571    0.00063492 107 t-inv F
  0.333333  0.333333  0.428571    0.00063492 108 t-inv F
 -0.066667  0.066667  0.000000    0.00063492   2 t-inv F
  0.000000 -0.066667  0.000000    0.00063492   2 t-inv F
  0.000000  0.066667  0.000000    0.00063492   2 t-inv F
 -0.066667  0.000000  0.000000    0.00063492   2 t-inv F
  0.066667 -0.066667  0.000000    0.00063492   2 t-inv F
 -0.133333  0.133333  0.000000    0.00063492   3 t-inv F
  0.000000 -0.133333  0.000000    0.00063492   3 t-inv F
  0.000000  0.133333  0.000000    0.00063492   3 t-inv F
 -0.133333  0.000000  0.000000    0.00063492   3 t-inv F
  0.133333 -0.133333  0.000000    0.00063492   3 t-inv F
 -0.200000  0.200000  0.000000    0.00063492   4 t-inv F
  0.000000 -0.200000  0.000000    0.00063492   4 t-inv F
  0.000000  0.200000  0.000000    0.00063492   4 t-inv F
 -0.200000  0.000000  0.000000    0.00063492   4 t-inv F
  0.200000 -0.200000  0.000000    0.00063492   4 t-inv F
 -0.266667  0.266667  0.000000    0.00063492   5 t-inv F
  0.000000 -0.266667  0.000000    0.00063492   5 t-inv F
  0.000000  0.266667  0.000000    0.00063492   5 t-inv F
 -0.266667  0.000000  0.000000    0.00063492   5 t-inv F
  0.266667 -0.266667  0.000000    0.00063492   5 t-inv F
 -0.333333  0.333333  0.000000    0.00063492   6 t-inv F
  0.000000 -0.333333  0.000000    0.00063492   6 t-inv F
  0.000000  0.333333  0.000000    0.00063492   6 t-inv F
 -0.333333  0.000000  0.000000    0.00063492   6 t-inv F
  0.333333 -0.333333  0.000000    0.00063492   6 t-inv F
 -0.400000  0.400000  0.000000    0.00063492   7 t-inv F
  0.000000 -0.400000  0.000000    0.00063492   7 t-inv F
  0.000000  0.400000  0.000000    0.00063492   7 t-inv F
 -0.400000  0.000000  0.000000    0.00063492   7 t-inv F
  0.400000 -0.400000  0.000000    0.00063492   7 t-inv F
 -0.466667  0.466667  0.000000    0.00063492   8 t-inv F
  0.000000 -0.466667  0.000000    0.00063492   8 t-inv F
  0.000000  0.466667  0.000000    0.00063492   8 t-inv F
 -0.466667  0.000000  0.000000    0.00063492   8 t-inv F
  0.466667 -0.466667  0.000000    0.00063492   8 t-inv F
 -0.133333  0.066667  0.000000    0.00063492   9 t-inv F
  0.066667 -0.133333  0.000000    0.00063492   9 t-inv F
 -0.066667  0.133333  0.000000    0.00063492   9 t-inv F
  0.133333 -0.066667  0.000000    0.00063492   9 t-inv F
 -0.066667 -0.066667  0.000000    0.00063492   9 t-inv F
 -0.200000  0.133333  0.000000    0.00063492  10 t-inv F
  0.066667 -0.200000  0.000000    0.00063492  10 t-inv F
 -0.133333  0.200000  0.000000    0.00063492  10 t-inv F
  0.200000 -0.066667  0.000000    0.00063492  10 t-inv F
 -0.066667 -0.133333  0.000000    0.00063492  10 t-inv F
 -0.066667  0.200000  0.000000    0.00063492  10 t-inv F
 -0.133333 -0.066667  0.000000    0.00063492  10 t-inv F
  0.200000 -0.133333  0.000000    0.00063492  10 t-inv F
  0.066667  0.133333  0.000000    0.00063492  10 t-inv F
  0.133333 -0.200000  0.000000    0.00063492  10 t-inv F
 -0.200000  0.066667  0.000000    0.00063492  10 t-inv F
 -0.266667  0.200000  0.000000    0.00063492  11 t-inv F
  0.066667 -0.266667  0.000000    0.00063492  11 t-inv F
 -0.200000  0.266667  0.000000    0.00063492  11 t-inv F
  0.266667 -0.066667  0.000000    0.00063492  11 t-inv F
 -0.066667 -0.200000  0.000000    0.00063492  11 t-inv F
 -0.066667  0.266667  0.000000    0.00063492  11 t-inv F
 -0.200000 -0.066667  0.000000    0.00063492  11 t-inv F
  0.266667 -0.200000  0.000000    0.00063492  11 t-inv F
  0.066667  0.200000  0.000000    0.00063492  11 t-inv F
  0.200000 -0.266667  0.000000    0.00063492  11 t-inv F
 -0.266667  0.066667  0.000000    0.00063492  11 t-inv F
 -0.333333  0.266667  0.000000    0.00063492  12 t-inv F
  0.066667 -0.333333  0.000000    0.00063492  12 t-inv F
 -0.266667  0.333333  0.000000    0.00063492  12 t-inv F
  0.333333 -0.066667  0.000000    0.00063492  12 t-inv F
 -0.066667 -0.266667  0.000000    0.00063492  12 t-inv F
 -0.066667  0.333333  0.000000    0.00063492  12 t-inv F
 -0.266667 -0.066667  0.000000    0.00063492  12 t-inv F
  0.333333 -0.266667  0.000000    0.00063492  12 t-inv F
  0.066667  0.266667  0.000000    0.00063492  12 t-inv F
  0.266667 -0.333333  0.000000    0.00063492  12 t-inv F
 -0.333333  0.066667  0.000000    0.00063492  12 t-inv F
 -0.400000  0.333333  0.000000    0.00063492  13 t-inv F
  0.066667 -0.400000  0.000000    0.00063492  13 t-inv F
 -0.333333  0.400000  0.000000    0.00063492  13 t-inv F
  0.400000 -0.066667  0.000000    0.00063492  13 t-inv F
 -0.066667 -0.333333  0.000000    0.00063492  13 t-inv F
 -0.066667  0.400000  0.000000    0.00063492  13 t-inv F
 -0.333333 -0.066667  0.000000    0.00063492  13 t-inv F
  0.400000 -0.333333  0.000000    0.00063492  13 t-inv F
  0.066667  0.333333  0.000000    0.00063492  13 t-inv F
  0.333333 -0.400000  0.000000    0.00063492  13 t-inv F
 -0.400000  0.066667  0.000000    0.00063492  13 t-inv F
 -0.466667  0.400000  0.000000    0.00063492  14 t-inv F
  0.066667 -0.466667  0.000000    0.00063492  14 t-inv F
 -0.400000  0.466667  0.000000    0.00063492  14 t-inv F
  0.466667 -0.066667  0.000000    0.00063492  14 t-inv F
 -0.066667 -0.400000  0.000000    0.00063492  14 t-inv F
 -0.066667  0.466667  0.000000    0.00063492  14 t-inv F
 -0.400000 -0.066667  0.000000    0.00063492  14 t-inv F
  0.466667 -0.400000  0.000000    0.00063492  14 t-inv F
  0.066667  0.400000  0.000000    0.00063492  14 t-inv F
  0.400000 -0.466667  0.000000    0.00063492  14 t-inv F
 -0.466667  0.066667  0.000000    0.00063492  14 t-inv F
 -0.533333  0.466667  0.000000    0.00063492  15 t-inv F
  0.066667 -0.533333  0.000000    0.00063492  15 t-inv F
 -0.466667  0.533333  0.000000    0.00063492  15 t-inv F
  0.533333 -0.066667  0.000000    0.00063492  15 t-inv F
 -0.066667 -0.466667  0.000000    0.00063492  15 t-inv F
 -0.266667  0.133333  0.000000    0.00063492  16 t-inv F
  0.133333 -0.266667  0.000000    0.00063492  16 t-inv F
 -0.133333  0.266667  0.000000    0.00063492  16 t-inv F
  0.266667 -0.133333  0.000000    0.00063492  16 t-inv F
 -0.133333 -0.133333  0.000000    0.00063492  16 t-inv F
 -0.333333  0.200000  0.000000    0.00063492  17 t-inv F
  0.133333 -0.333333  0.000000    0.00063492  17 t-inv F
 -0.200000  0.333333  0.000000    0.00063492  17 t-inv F
  0.333333 -0.133333  0.000000    0.00063492  17 t-inv F
 -0.133333 -0.200000  0.000000    0.00063492  17 t-inv F
 -0.133333  0.333333  0.000000    0.00063492  17 t-inv F
 -0.200000 -0.133333  0.000000    0.00063492  17 t-inv F
  0.333333 -0.200000  0.000000    0.00063492  17 t-inv F
  0.133333  0.200000  0.000000    0.00063492  17 t-inv F
  0.200000 -0.333333  0.000000    0.00063492  17 t-inv F
 -0.333333  0.133333  0.000000    0.00063492  17 t-inv F
 -0.400000  0.266667  0.000000    0.00063492  18 t-inv F
  0.133333 -0.400000  0.000000    0.00063492  18 t-inv F
 -0.266667  0.400000  0.000000    0.00063492  18 t-inv F
  0.400000 -0.133333  0.000000    0.00063492  18 t-inv F
 -0.133333 -0.266667  0.000000    0.00063492  18 t-inv F
 -0.133333  0.400000  0.000000    0.00063492  18 t-inv F
 -0.266667 -0.133333  0.000000    0.00063492  18 t-inv F
  0.400000 -0.266667  0.000000    0.00063492  18 t-inv F
  0.133333  0.266667  0.000000    0.00063492  18 t-inv F
  0.266667 -0.400000  0.000000    0.00063492  18 t-inv F
 -0.400000  0.133333  0.000000    0.00063492  18 t-inv F
 -0.466667  0.333333  0.000000    0.00063492  19 t-inv F
  0.133333 -0.466667  0.000000    0.00063492  19 t-inv F
 -0.333333  0.466667  0.000000    0.00063492  19 t-inv F
  0.466667 -0.133333  0.000000    0.00063492  19 t-inv F
 -0.133333 -0.333333  0.000000    0.00063492  19 t-inv F
 -0.133333  0.466667  0.000000    0.00063492  19 t-inv F
 -0.333333 -0.133333  0.000000    0.00063492  19 t-inv F
  0.466667 -0.333333  0.000000    0.00063492  19 t-inv F
  0.133333  0.333333  0.000000    0.00063492  19 t-inv F
  0.333333 -0.466667  0.000000    0.00063492  19 t-inv F
 -0.466667  0.133333  0.000000    0.00063492  19 t-inv F
 -0.533333  0.400000  0.000000    0.00063492  20 t-inv F
  0.133333 -0.533333  0.000000    0.00063492  20 t-inv F
 -0.400000  0.533333  0.000000    0.00063492  20 t-inv F
  0.533333 -0.133333  0.000000    0.00063492  20 t-inv F
 -0.133333 -0.400000  0.000000    0.00063492  20 t-inv F
 -0.133333  0.533333  0.000000    0.00063492  20 t-inv F
 -0.400000 -0.133333  0.000000    0.00063492  20 t-inv F
  0.533333 -0.400000  0.000000    0.00063492  20 t-inv F
  0.133333  0.400000  0.000000    0.00063492  20 t-inv F
  0.400000 -0.533333  0.000000    0.00063492  20 t-inv F
 -0.533333  0.133333  0.000000    0.00063492  20 t-inv F
 -0.400000  0.200000  0.000000    0.00063492  21 t-inv F
  0.200000 -0.400000  0.000000    0.00063492  21 t-inv F
 -0.200000  0.400000  0.000000    0.00063492  21 t-inv F
  0.400000 -0.200000  0.000000    0.00063492  21 t-inv F
 -0.200000 -0.200000  0.000000    0.00063492  21 t-inv F
 -0.466667  0.266667  0.000000    0.00063492  22 t-inv F
  0.200000 -0.466667  0.000000    0.00063492  22 t-inv F
 -0.266667  0.466667  0.000000    0.00063492  22 t-inv F
  0.466667 -0.200000  0.000000    0.00063492  22 t-inv F
 -0.200000 -0.266667  0.000000    0.00063492  22 t-inv F
 -0.200000  0.466667  0.000000    0.00063492  22 t-inv F
 -0.266667 -0.200000  0.000000    0.00063492  22 t-inv F
  0.466667 -0.266667  0.000000    0.00063492  22 t-inv F
  0.200000  0.266667  0.000000    0.00063492  22 t-inv F
  0.266667 -0.466667  0.000000    0.00063492  22 t-inv F
 -0.466667  0.200000  0.000000    0.00063492  22 t-inv F
 -0.533333  0.333333  0.000000    0.00063492  23 t-inv F
  0.200000 -0.533333  0.000000    0.00063492  23 t-inv F
 -0.333333  0.533333  0.000000    0.00063492  23 t-inv F
  0.533333 -0.200000  0.000000    0.00063492  23 t-inv F
 -0.200000 -0.333333  0.000000    0.00063492  23 t-inv F
 -0.200000  0.533333  0.000000    0.00063492  23 t-inv F
 -0.333333 -0.200000  0.000000    0.00063492  23 t-inv F
  0.533333 -0.333333  0.000000    0.00063492  23 t-inv F
  0.200000  0.333333  0.000000    0.00063492  23 t-inv F
  0.333333 -0.533333  0.000000    0.00063492  23 t-inv F
 -0.533333  0.200000  0.000000    0.00063492  23 t-inv F
 -0.600000  0.400000  0.000000    0.00063492  24 t-inv F
  0.200000 -0.600000  0.000000    0.00063492  24 t-inv F
 -0.400000  0.600000  0.000000    0.00063492  24 t-inv F
  0.600000 -0.200000  0.000000    0.00063492  24 t-inv F
 -0.200000 -0.400000  0.000000    0.00063492  24 t-inv F
 -0.533333  0.266667  0.000000    0.00063492  25 t-inv F
  0.266667 -0.533333  0.000000    0.00063492  25 t-inv F
 -0.266667  0.533333  0.000000    0.00063492  25 t-inv F
  0.533333 -0.266667  0.000000    0.00063492  25 t-inv F
 -0.266667 -0.266667  0.000000    0.00063492  25 t-inv F
 -0.600000  0.333333  0.000000    0.00063492  26 t-inv F
  0.266667 -0.600000  0.000000    0.00063492  26 t-inv F
 -0.333333  0.600000  0.000000    0.00063492  26 t-inv F
  0.600000 -0.266667  0.000000    0.00063492  26 t-inv F
 -0.266667 -0.333333  0.000000    0.00063492  26 t-inv F
 -0.266667  0.600000  0.000000    0.00063492  26 t-inv F
 -0.333333 -0.266667  0.000000    0.00063492  26 t-inv F
  0.600000 -0.333333  0.000000    0.00063492  26 t-inv F
  0.266667  0.333333  0.000000    0.00063492  26 t-inv F
  0.333333 -0.600000  0.000000    0.00063492  26 t-inv F
 -0.600000  0.266667  0.000000    0.00063492  26 t-inv F
 -0.333333  0.666667  0.000000    0.00063492  27 t-inv F
 -0.066667  0.066667  0.142857    0.00063492  29 t-inv F
  0.000000 -0.066667  0.142857    0.00063492  29 t-inv F
  0.000000  0.066667  0.142857    0.00063492  29 t-inv F
 -0.066667  0.000000  0.142857    0.00063492  29 t-inv F
  0.066667 -0.066667  0.142857    0.00063492  29 t-inv F
 -0.133333  0.133333  0.142857    0.00063492  30 t-inv F
  0.000000 -0.133333  0.142857    0.00063492  30 t-inv F
  0.000000  0.133333  0.142857    0.00063492  30 t-inv F
 -0.133333  0.000000  0.142857    0.00063492  30 t-inv F
  0.133333 -0.133333  0.142857    0.00063492  30 t-inv F
 -0.200000  0.200000  0.142857    0.00063492  31 t-inv F
  0.000000 -0.200000  0.142857    0.00063492  31 t-inv F
  0.000000  0.200000  0.142857    0.00063492  31 t-inv F
 -0.200000  0.000000  0.142857    0.00063492  31 t-inv F
  0.200000 -0.200000  0.142857    0.00063492  31 t-inv F
 -0.266667  0.266667  0.142857    0.00063492  32 t-inv F
  0.000000 -0.266667  0.142857    0.00063492  32 t-inv F
  0.000000  0.266667  0.142857    0.00063492  32 t-inv F
 -0.266667  0.000000  0.142857    0.00063492  32 t-inv F
  0.266667 -0.266667  0.142857    0.00063492  32 t-inv F
 -0.333333  0.333333  0.142857    0.00063492  33 t-inv F
  0.000000 -0.333333  0.142857    0.00063492  33 t-inv F
  0.000000  0.333333  0.142857    0.00063492  33 t-inv F
 -0.333333  0.000000  0.142857    0.00063492  33 t-inv F
  0.333333 -0.333333  0.142857    0.00063492  33 t-inv F
 -0.400000  0.400000  0.142857    0.00063492  34 t-inv F
  0.000000 -0.400000  0.142857    0.00063492  34 t-inv F
  0.000000  0.400000  0.142857    0.00063492  34 t-inv F
 -0.400000  0.000000  0.142857    0.00063492  34 t-inv F
  0.400000 -0.400000  0.142857    0.00063492  34 t-inv F
 -0.466667  0.466667  0.142857    0.00063492  35 t-inv F
  0.000000 -0.466667  0.142857    0.00063492  35 t-inv F
  0.000000  0.466667  0.142857    0.00063492  35 t-inv F
 -0.466667  0.000000  0.142857    0.00063492  35 t-inv F
  0.466667 -0.466667  0.142857    0.00063492  35 t-inv F
 -0.133333  0.066667  0.142857    0.00063492  36 t-inv F
  0.066667 -0.133333  0.142857    0.00063492  36 t-inv F
 -0.066667  0.133333  0.142857    0.00063492  36 t-inv F
  0.133333 -0.066667  0.142857    0.00063492  36 t-inv F
 -0.066667 -0.066667  0.142857    0.00063492  36 t-inv F
 -0.200000  0.133333  0.142857    0.00063492  37 t-inv F
  0.066667 -0.200000  0.142857    0.00063492  37 t-inv F
 -0.133333  0.200000  0.142857    0.00063492  37 t-inv F
  0.200000 -0.066667  0.142857    0.00063492  37 t-inv F
 -0.066667 -0.133333  0.142857    0.00063492  37 t-inv F
 -0.066667  0.200000  0.142857    0.00063492  37 t-inv F
 -0.133333 -0.066667  0.142857    0.00063492  37 t-inv F
  0.200000 -0.133333  0.142857    0.00063492  37 t-inv F
  0.066667  0.133333  0.142857    0.00063492  37 t-inv F
  0.133333 -0.200000  0.142857    0.00063492  37 t-inv F
 -0.200000  0.066667  0.142857    0.00063492  37 t-inv F
 -0.266667  0.200000  0.142857    0.00063492  38 t-inv F
  0.066667 -0.266667  0.142857    0.00063492  38 t-inv F
 -0.200000  0.266667  0.142857    0.00063492  38 t-inv F
  0.266667 -0.066667  0.142857    0.00063492  38 t-inv F
 -0.066667 -0.200000  0.142857    0.00063492  38 t-inv F
 -0.066667  0.266667  0.142857    0.00063492  38 t-inv F
 -0.200000 -0.066667  0.142857    0.00063492  38 t-inv F
  0.266667 -0.200000  0.142857    0.00063492  38 t-inv F
  0.066667  0.200000  0.142857    0.00063492  38 t-inv F
  0.200000 -0.266667  0.142857    0.00063492  38 t-inv F
 -0.266667  0.066667  0.142857    0.00063492  38 t-inv F
 -0.333333  0.266667  0.142857    0.00063492  39 t-inv F
  0.066667 -0.333333  0.142857    0.00063492  39 t-inv F
 -0.266667  0.333333  0.142857    0.00063492  39 t-inv F
  0.333333 -0.066667  0.142857    0.00063492  39 t-inv F
 -0.066667 -0.266667  0.142857    0.00063492  39 t-inv F
 -0.066667  0.333333  0.142857    0.00063492  39 t-inv F
 -0.266667 -0.066667  0.142857    0.00063492  39 t-inv F
  0.333333 -0.266667  0.142857    0.00063492  39 t-inv F
  0.066667  0.266667  0.142857    0.00063492  39 t-inv F
  0.266667 -0.333333  0.142857    0.00063492  39 t-inv F
 -0.333333  0.066667  0.142857    0.00063492  39 t-inv F
 -0.400000  0.333333  0.142857    0.00063492  40 t-inv F
  0.066667 -0.400000  0.142857    0.00063492  40 t-inv F
 -0.333333  0.400000  0.142857    0.00063492  40 t-inv F
  0.400000 -0.066667  0.142857    0.00063492  40 t-inv F
 -0.066667 -0.333333  0.142857    0.00063492  40 t-inv F
 -0.066667  0.400000  0.142857    0.00063492  40 t-inv F
 -0.333333 -0.066667  0.142857    0.00063492  40 t-inv F
  0.400000 -0.333333  0.142857    0.00063492  40 t-inv F
  0.066667  0.333333  0.142857    0.00063492  40 t-inv F
  0.333333 -0.400000  0.142857    0.00063492  40 t-inv F
 -0.400000  0.066667  0.142857    0.00063492  40 t-inv F
 -0.466667  0.400000  0.142857    0.00063492  41 t-inv F
  0.066667 -0.466667  0.142857    0.00063492  41 t-inv F
 -0.400000  0.466667  0.142857    0.00063492  41 t-inv F
  0.466667 -0.066667  0.142857    0.00063492  41 t-inv F
 -0.066667 -0.400000  0.142857    0.00063492  41 t-inv F
 -0.066667  0.466667  0.142857    0.00063492  41 t-inv F
 -0.400000 -0.066667  0.142857    0.00063492  41 t-inv F
  0.466667 -0.400000  0.142857    0.00063492  41 t-inv F
  0.066667  0.400000  0.142857    0.00063492  41 t-inv F
  0.400000 -0.466667  0.142857    0.00063492  41 t-inv F
 -0.466667  0.066667  0.142857    0.00063492  41 t-inv F
 -0.533333  0.466667  0.142857    0.00063492  42 t-inv F
  0.066667 -0.533333  0.142857    0.00063492  42 t-inv F
 -0.466667  0.533333  0.142857    0.00063492  42 t-inv F
  0.533333 -0.066667  0.142857    0.00063492  42 t-inv F
 -0.066667 -0.466667  0.142857    0.00063492  42 t-inv F
 -0.266667  0.133333  0.142857    0.00063492  43 t-inv F
  0.133333 -0.266667  0.142857    0.00063492  43 t-inv F
 -0.133333  0.266667  0.142857    0.00063492  43 t-inv F
  0.266667 -0.133333  0.142857    0.00063492  43 t-inv F
 -0.133333 -0.133333  0.142857    0.00063492  43 t-inv F
 -0.333333  0.200000  0.142857    0.00063492  44 t-inv F
  0.133333 -0.333333  0.142857    0.00063492  44 t-inv F
 -0.200000  0.333333  0.142857    0.00063492  44 t-inv F
  0.333333 -0.133333  0.142857    0.00063492  44 t-inv F
 -0.133333 -0.200000  0.142857    0.00063492  44 t-inv F
 -0.133333  0.333333  0.142857    0.00063492  44 t-inv F
 -0.200000 -0.133333  0.142857    0.00063492  44 t-inv F
  0.333333 -0.200000  0.142857    0.00063492  44 t-inv F
  0.133333  0.200000  0.142857    0.00063492  44 t-inv F
  0.200000 -0.333333  0.142857    0.00063492  44 t-inv F
 -0.333333  0.133333  0.142857    0.00063492  44 t-inv F
 -0.400000  0.266667  0.142857    0.00063492  45 t-inv F
  0.133333 -0.400000  0.142857    0.00063492  45 t-inv F
 -0.266667  0.400000  0.142857    0.00063492  45 t-inv F
  0.400000 -0.133333  0.142857    0.00063492  45 t-inv F
 -0.133333 -0.266667  0.142857    0.00063492  45 t-inv F
 -0.133333  0.400000  0.142857    0.00063492  45 t-inv F
 -0.266667 -0.133333  0.142857    0.00063492  45 t-inv F
  0.400000 -0.266667  0.142857    0.00063492  45 t-inv F
  0.133333  0.266667  0.142857    0.00063492  45 t-inv F
  0.266667 -0.400000  0.142857    0.00063492  45 t-inv F
 -0.400000  0.133333  0.142857    0.00063492  45 t-inv F
 -0.466667  0.333333  0.142857    0.00063492  46 t-inv F
  0.133333 -0.466667  0.142857    0.00063492  46 t-inv F
 -0.333333  0.466667  0.142857    0.00063492  46 t-inv F
  0.466667 -0.133333  0.142857    0.00063492  46 t-inv F
 -0.133333 -0.333333  0.142857    0.00063492  46 t-inv F
 -0.133333  0.466667  0.142857    0.00063492  46 t-inv F
 -0.333333 -0.133333  0.142857    0.00063492  46 t-inv F
  0.466667 -0.333333  0.142857    0.00063492  46 t-inv F
  0.133333  0.333333  0.142857    0.00063492  46 t-inv F
  0.333333 -0.466667  0.142857    0.00063492  46 t-inv F
 -0.466667  0.133333  0.142857    0.00063492  46 t-inv F
 -0.533333  0.400000  0.142857    0.00063492  47 t-inv F
  0.133333 -0.533333  0.142857    0.00063492  47 t-inv F
 -0.400000  0.533333  0.142857    0.00063492  47 t-inv F
  0.533333 -0.133333  0.142857    0.00063492  47 t-inv F
 -0.133333 -0.400000  0.142857    0.00063492  47 t-inv F
 -0.133333  0.533333  0.142857    0.00063492  47 t-inv F
 -0.400000 -0.133333  0.142857    0.00063492  47 t-inv F
  0.533333 -0.400000  0.142857    0.00063492  47 t-inv F
  0.133333  0.400000  0.142857    0.00063492  47 t-inv F
  0.400000 -0.533333  0.142857    0.00063492  47 t-inv F
 -0.533333  0.133333  0.142857    0.00063492  47 t-inv F
 -0.400000  0.200000  0.142857    0.00063492  48 t-inv F
  0.200000 -0.400000  0.142857    0.00063492  48 t-inv F
 -0.200000  0.400000  0.142857    0.00063492  48 t-inv F
  0.400000 -0.200000  0.142857    0.00063492  48 t-inv F
 -0.200000 -0.200000  0.142857    0.00063492  48 t-inv F
 -0.466667  0.266667  0.142857    0.00063492  49 t-inv F
  0.200000 -0.466667  0.142857    0.00063492  49 t-inv F
 -0.266667  0.466667  0.142857    0.00063492  49 t-inv F
  0.466667 -0.200000  0.142857    0.00063492  49 t-inv F
 -0.200000 -0.266667  0.142857    0.00063492  49 t-inv F
 -0.200000  0.466667  0.142857    0.00063492  49 t-inv F
 -0.266667 -0.200000  0.142857    0.00063492  49 t-inv F
  0.466667 -0.266667  0.142857    0.00063492  49 t-inv F
  0.200000  0.266667  0.142857    0.00063492  49 t-inv F
  0.266667 -0.466667  0.142857    0.00063492  49 t-inv F
 -0.466667  0.200000  0.142857    0.00063492  49 t-inv F
 -0.533333  0.333333  0.142857    0.00063492  50 t-inv F
  0.200000 -0.533333  0.142857    0.00063492  50 t-inv F
 -0.333333  0.533333  0.142857    0.00063492  50 t-inv F
  0.533333 -0.200000  0.142857    0.00063492  50 t-inv F
 -0.200000 -0.333333  0.142857    0.00063492  50 t-inv F
 -0.200000  0.533333  0.142857    0.00063492  50 t-inv F
 -0.333333 -0.200000  0.142857    0.00063492  50 t-inv F
  0.533333 -0.333333  0.142857    0.00063492  50 t-inv F
  0.200000  0.333333  0.142857    0.00063492  50 t-inv F
  0.333333 -0.533333  0.142857    0.00063492  50 t-inv F
 -0.533333  0.200000  0.142857    0.00063492  50 t-inv F
 -0.600000  0.400000  0.142857    0.00063492  51 t-inv F
  0.200000 -0.600000  0.142857    0.00063492  51 t-inv F
 -0.400000  0.600000  0.142857    0.00063492  51 t-inv F
  0.600000 -0.200000  0.142857    0.00063492  51 t-inv F
 -0.200000 -0.400000  0.142857    0.00063492  51 t-inv F
 -0.533333  0.266667  0.142857    0.00063492  52 t-inv F
  0.266667 -0.533333  0.142857    0.00063492  52 t-inv F
 -0.266667  0.533333  0.142857    0.00063492  52 t-inv F
  0.533333 -0.266667  0.142857    0.00063492  52 t-inv F
 -0.266667 -0.266667  0.142857    0.00063492  52 t-inv F
 -0.600000  0.333333  0.142857    0.00063492  53 t-inv F
  0.266667 -0.600000  0.142857    0.00063492  53 t-inv F
 -0.333333  0.600000  0.142857    0.00063492  53 t-inv F
  0.600000 -0.266667  0.142857    0.00063492  53 t-inv F
 -0.266667 -0.333333  0.142857    0.00063492  53 t-inv F
 -0.266667  0.600000  0.142857    0.00063492  53 t-inv F
 -0.333333 -0.266667  0.142857    0.00063492  53 t-inv F
  0.600000 -0.333333  0.142857    0.00063492  53 t-inv F
  0.266667  0.333333  0.142857    0.00063492  53 t-inv F
  0.333333 -0.600000  0.142857    0.00063492  53 t-inv F
 -0.600000  0.266667  0.142857    0.00063492  53 t-inv F
 -0.333333  0.666667  0.142857    0.00063492  54 t-inv F
 -0.066667  0.066667  0.285714    0.00063492  56 t-inv F
  0.000000 -0.066667  0.285714    0.00063492  56 t-inv F
  0.000000  0.066667  0.285714    0.00063492  56 t-inv F
 -0.066667  0.000000  0.285714    0.00063492  56 t-inv F
  0.066667 -0.066667  0.285714    0.00063492  56 t-inv F
 -0.133333  0.133333  0.285714    0.00063492  57 t-inv F
  0.000000 -0.133333  0.285714    0.00063492  57 t-inv F
  0.000000  0.133333  0.285714    0.00063492  57 t-inv F
 -0.133333  0.000000  0.285714    0.00063492  57 t-inv F
  0.133333 -0.133333  0.285714    0.00063492  57 t-inv F
 -0.200000  0.200000  0.285714    0.00063492  58 t-inv F
  0.000000 -0.200000  0.285714    0.00063492  58 t-inv F
  0.000000  0.200000  0.285714    0.00063492  58 t-inv F
 -0.200000  0.000000  0.285714    0.00063492  58 t-inv F
  0.200000 -0.200000  0.285714    0.00063492  58 t-inv F
 -0.266667  0.266667  0.285714    0.00063492  59 t-inv F
  0.000000 -0.266667  0.285714    0.00063492  59 t-inv F
  0.000000  0.266667  0.285714    0.00063492  59 t-inv F
 -0.266667  0.000000  0.285714    0.00063492  59 t-inv F
  0.266667 -0.266667  0.285714    0.00063492  59 t-inv F
 -0.333333  0.333333  0.285714    0.00063492  60 t-inv F
  0.000000 -0.333333  0.285714    0.00063492  60 t-inv F
  0.000000  0.333333  0.285714    0.00063492  60 t-inv F
 -0.333333  0.000000  0.285714    0.00063492  60 t-inv F
  0.333333 -0.333333  0.285714    0.00063492  60 t-inv F
 -0.400000  0.400000  0.285714    0.00063492  61 t-inv F
  0.000000 -0.400000  0.285714    0.00063492  61 t-inv F
  0.000000  0.400000  0.285714    0.00063492  61 t-inv F
 -0.400000  0.000000  0.285714    0.00063492  61 t-inv F
  0.400000 -0.400000  0.285714    0.00063492  61 t-inv F
 -0.466667  0.466667  0.285714    0.00063492  62 t-inv F
  0.000000 -0.466667  0.285714    0.00063492  62 t-inv F
  0.000000  0.466667  0.285714    0.00063492  62 t-inv F
 -0.466667  0.000000  0.285714    0.00063492  62 t-inv F
  0.466667 -0.466667  0.285714    0.00063492  62 t-inv F
 -0.133333  0.066667  0.285714    0.00063492  63 t-inv F
  0.066667 -0.133333  0.285714    0.00063492  63 t-inv F
 -0.066667  0.133333  0.285714    0.00063492  63 t-inv F
  0.133333 -0.066667  0.285714    0.00063492  63 t-inv F
 -0.066667 -0.066667  0.285714    0.00063492  63 t-inv F
 -0.200000  0.133333  0.285714    0.00063492  64 t-inv F
  0.066667 -0.200000  0.285714    0.00063492  64 t-inv F
 -0.133333  0.200000  0.285714    0.00063492  64 t-inv F
  0.200000 -0.066667  0.285714    0.00063492  64 t-inv F
 -0.066667 -0.133333  0.285714    0.00063492  64 t-inv F
 -0.066667  0.200000  0.285714    0.00063492  64 t-inv F
 -0.133333 -0.066667  0.285714    0.00063492  64 t-inv F
  0.200000 -0.133333  0.285714    0.00063492  64 t-inv F
  0.066667  0.133333  0.285714    0.00063492  64 t-inv F
  0.133333 -0.200000  0.285714    0.00063492  64 t-inv F
 -0.200000  0.066667  0.285714    0.00063492  64 t-inv F
 -0.266667  0.200000  0.285714    0.00063492  65 t-inv F
  0.066667 -0.266667  0.285714    0.00063492  65 t-inv F
 -0.200000  0.266667  0.285714    0.00063492  65 t-inv F
  0.266667 -0.066667  0.285714    0.00063492  65 t-inv F
 -0.066667 -0.200000  0.285714    0.00063492  65 t-inv F
 -0.066667  0.266667  0.285714    0.00063492  65 t-inv F
 -0.200000 -0.066667  0.285714    0.00063492  65 t-inv F
  0.266667 -0.200000  0.285714    0.00063492  65 t-inv F
  0.066667  0.200000  0.285714    0.00063492  65 t-inv F
  0.200000 -0.266667  0.285714    0.00063492  65 t-inv F
 -0.266667  0.066667  0.285714    0.00063492  65 t-inv F
 -0.333333  0.266667  0.285714    0.00063492  66 t-inv F
  0.066667 -0.333333  0.285714    0.00063492  66 t-inv F
 -0.266667  0.333333  0.285714    0.00063492  66 t-inv F
  0.333333 -0.066667  0.285714    0.00063492  66 t-inv F
 -0.066667 -0.266667  0.285714    0.00063492  66 t-inv F
 -0.066667  0.333333  0.285714    0.00063492  66 t-inv F
 -0.266667 -0.066667  0.285714    0.00063492  66 t-inv F
  0.333333 -0.266667  0.285714    0.00063492  66 t-inv F
  0.066667  0.266667  0.285714    0.00063492  66 t-inv F
  0.266667 -0.333333  0.285714    0.00063492  66 t-inv F
 -0.333333  0.066667  0.285714    0.00063492  66 t-inv F
 -0.400000  0.333333  0.285714    0.00063492  67 t-inv F
  0.066667 -0.400000  0.285714    0.00063492  67 t-inv F
 -0.333333  0.400000  0.285714    0.00063492  67 t-inv F
  0.400000 -0.066667  0.285714    0.00063492  67 t-inv F
 -0.066667 -0.333333  0.285714    0.00063492  67 t-inv F
 -0.066667  0.400000  0.285714    0.00063492  67 t-inv F
 -0.333333 -0.066667  0.285714    0.00063492  67 t-inv F
  0.400000 -0.333333  0.285714    0.00063492  67 t-inv F
  0.066667  0.333333  0.285714    0.00063492  67 t-inv F
  0.333333 -0.400000  0.285714    0.00063492  67 t-inv F
 -0.400000  0.066667  0.285714    0.00063492  67 t-inv F
 -0.466667  0.400000  0.285714    0.00063492  68 t-inv F
  0.066667 -0.466667  0.285714    0.00063492  68 t-inv F
 -0.400000  0.466667  0.285714    0.00063492  68 t-inv F
  0.466667 -0.066667  0.285714    0.00063492  68 t-inv F
 -0.066667 -0.400000  0.285714    0.00063492  68 t-inv F
 -0.066667  0.466667  0.285714    0.00063492  68 t-inv F
 -0.400000 -0.066667  0.285714    0.00063492  68 t-inv F
  0.466667 -0.400000  0.285714    0.00063492  68 t-inv F
  0.066667  0.400000  0.285714    0.00063492  68 t-inv F
  0.400000 -0.466667  0.285714    0.00063492  68 t-inv F
 -0.466667  0.066667  0.285714    0.00063492  68 t-inv F
 -0.533333  0.466667  0.285714    0.00063492  69 t-inv F
  0.066667 -0.533333  0.285714    0.00063492  69 t-inv F
 -0.466667  0.533333  0.285714    0.00063492  69 t-inv F
  0.533333 -0.066667  0.285714    0.00063492  69 t-inv F
 -0.066667 -0.466667  0.285714    0.00063492  69 t-inv F
 -0.266667  0.133333  0.285714    0.00063492  70 t-inv F
  0.133333 -0.266667  0.285714    0.00063492  70 t-inv F
 -0.133333  0.266667  0.285714    0.00063492  70 t-inv F
  0.266667 -0.133333  0.285714    0.00063492  70 t-inv F
 -0.133333 -0.133333  0.285714    0.00063492  70 t-inv F
 -0.333333  0.200000  0.285714    0.00063492  71 t-inv F
  0.133333 -0.333333  0.285714    0.00063492  71 t-inv F
 -0.200000  0.333333  0.285714    0.00063492  71 t-inv F
  0.333333 -0.133333  0.285714    0.00063492  71 t-inv F
 -0.133333 -0.200000  0.285714    0.00063492  71 t-inv F
 -0.133333  0.333333  0.285714    0.00063492  71 t-inv F
 -0.200000 -0.133333  0.285714    0.00063492  71 t-inv F
  0.333333 -0.200000  0.285714    0.00063492  71 t-inv F
  0.133333  0.200000  0.285714    0.00063492  71 t-inv F
  0.200000 -0.333333  0.285714    0.00063492  71 t-inv F
 -0.333333  0.133333  0.285714    0.00063492  71 t-inv F
 -0.400000  0.266667  0.285714    0.00063492  72 t-inv F
  0.133333 -0.400000  0.285714    0.00063492  72 t-inv F
 -0.266667  0.400000  0.285714    0.00063492  72 t-inv F
  0.400000 -0.133333  0.285714    0.00063492  72 t-inv F
 -0.133333 -0.266667  0.285714    0.00063492  72 t-inv F
 -0.133333  0.400000  0.285714    0.00063492  72 t-inv F
 -0.266667 -0.133333  0.285714    0.00063492  72 t-inv F
  0.400000 -0.266667  0.285714    0.00063492  72 t-inv F
  0.133333  0.266667  0.285714    0.00063492  72 t-inv F
  0.266667 -0.400000  0.285714    0.00063492  72 t-inv F
 -0.400000  0.133333  0.285714    0.00063492  72 t-inv F
 -0.466667  0.333333  0.285714    0.00063492  73 t-inv F
  0.133333 -0.466667  0.285714    0.00063492  73 t-inv F
 -0.333333  0.466667  0.285714    0.00063492  73 t-inv F
  0.466667 -0.133333  0.285714    0.00063492  73 t-inv F
 -0.133333 -0.333333  0.285714    0.00063492  73 t-inv F
 -0.133333  0.466667  0.285714    0.00063492  73 t-inv F
 -0.333333 -0.133333  0.285714    0.00063492  73 t-inv F
  0.466667 -0.333333  0.285714    0.00063492  73 t-inv F
  0.133333  0.333333  0.285714    0.00063492  73 t-inv F
  0.333333 -0.466667  0.285714    0.00063492  73 t-inv F
 -0.466667  0.133333  0.285714    0.00063492  73 t-inv F
 -0.533333  0.400000  0.285714    0.00063492  74 t-inv F
  0.133333 -0.533333  0.285714    0.00063492  74 t-inv F
 -0.400000  0.533333  0.285714    0.00063492  74 t-inv F
  0.533333 -0.133333  0.285714    0.00063492  74 t-inv F
 -0.133333 -0.400000  0.285714    0.00063492  74 t-inv F
 -0.133333  0.533333  0.285714    0.00063492  74 t-inv F
 -0.400000 -0.133333  0.285714    0.00063492  74 t-inv F
  0.533333 -0.400000  0.285714    0.00063492  74 t-inv F
  0.133333  0.400000  0.285714    0.00063492  74 t-inv F
  0.400000 -0.533333  0.285714    0.00063492  74 t-inv F
 -0.533333  0.133333  0.285714    0.00063492  74 t-inv F
 -0.400000  0.200000  0.285714    0.00063492  75 t-inv F
  0.200000 -0.400000  0.285714    0.00063492  75 t-inv F
 -0.200000  0.400000  0.285714    0.00063492  75 t-inv F
  0.400000 -0.200000  0.285714    0.00063492  75 t-inv F
 -0.200000 -0.200000  0.285714    0.00063492  75 t-inv F
 -0.466667  0.266667  0.285714    0.00063492  76 t-inv F
  0.200000 -0.466667  0.285714    0.00063492  76 t-inv F
 -0.266667  0.466667  0.285714    0.00063492  76 t-inv F
  0.466667 -0.200000  0.285714    0.00063492  76 t-inv F
 -0.200000 -0.266667  0.285714    0.00063492  76 t-inv F
 -0.200000  0.466667  0.285714    0.00063492  76 t-inv F
 -0.266667 -0.200000  0.285714    0.00063492  76 t-inv F
  0.466667 -0.266667  0.285714    0.00063492  76 t-inv F
  0.200000  0.266667  0.285714    0.00063492  76 t-inv F
  0.266667 -0.466667  0.285714    0.00063492  76 t-inv F
 -0.466667  0.200000  0.285714    0.00063492  76 t-inv F
 -0.533333  0.333333  0.285714    0.00063492  77 t-inv F
  0.200000 -0.533333  0.285714    0.00063492  77 t-inv F
 -0.333333  0.533333  0.285714    0.00063492  77 t-inv F
  0.533333 -0.200000  0.285714    0.00063492  77 t-inv F
 -0.200000 -0.333333  0.285714    0.00063492  77 t-inv F
 -0.200000  0.533333  0.285714    0.00063492  77 t-inv F
 -0.333333 -0.200000  0.285714    0.00063492  77 t-inv F
  0.533333 -0.333333  0.285714    0.00063492  77 t-inv F
  0.200000  0.333333  0.285714    0.00063492  77 t-inv F
  0.333333 -0.533333  0.285714    0.00063492  77 t-inv F
 -0.533333  0.200000  0.285714    0.00063492  77 t-inv F
 -0.600000  0.400000  0.285714    0.00063492  78 t-inv F
  0.200000 -0.600000  0.285714    0.00063492  78 t-inv F
 -0.400000  0.600000  0.285714    0.00063492  78 t-inv F
  0.600000 -0.200000  0.285714    0.00063492  78 t-inv F
 -0.200000 -0.400000  0.285714    0.00063492  78 t-inv F
 -0.533333  0.266667  0.285714    0.00063492  79 t-inv F
  0.266667 -0.533333  0.285714    0.00063492  79 t-inv F
 -0.266667  0.533333  0.285714    0.00063492  79 t-inv F
  0.533333 -0.266667  0.285714    0.00063492  79 t-inv F
 -0.266667 -0.266667  0.285714    0.00063492  79 t-inv F
 -0.600000  0.333333  0.285714    0.00063492  80 t-inv F
  0.266667 -0.600000  0.285714    0.00063492  80 t-inv F
 -0.333333  0.600000  0.285714    0.00063492  80 t-inv F
  0.600000 -0.266667  0.285714    0.00063492  80 t-inv F
 -0.266667 -0.333333  0.285714    0.00063492  80 t-inv F
 -0.266667  0.600000  0.285714    0.00063492  80 t-inv F
 -0.333333 -0.266667  0.285714    0.00063492  80 t-inv F
  0.600000 -0.333333  0.285714    0.00063492  80 t-inv F
  0.266667  0.333333  0.285714    0.00063492  80 t-inv F
  0.333333 -0.600000  0.285714    0.00063492  80 t-inv F
 -0.600000  0.266667  0.285714    0.00063492  80 t-inv F
 -0.333333  0.666667  0.285714    0.00063492  81 t-inv F
 -0.066667  0.066667  0.428571    0.00063492  83 t-inv F
  0.000000 -0.066667  0.428571    0.00063492  83 t-inv F
  0.000000  0.066667  0.428571    0.00063492  83 t-inv F
 -0.066667  0.000000  0.428571    0.00063492  83 t-inv F
  0.066667 -0.066667  0.428571    0.00063492  83 t-inv F
 -0.133333  0.133333  0.428571    0.00063492  84 t-inv F
  0.000000 -0.133333  0.428571    0.00063492  84 t-inv F
  0.000000  0.133333  0.428571    0.00063492  84 t-inv F
 -0.133333  0.000000  0.428571    0.00063492  84 t-inv F
  0.133333 -0.133333  0.428571    0.00063492  84 t-inv F
 -0.200000  0.200000  0.428571    0.00063492  85 t-inv F
  0.000000 -0.200000  0.428571    0.00063492  85 t-inv F
  0.000000  0.200000  0.428571    0.00063492  85 t-inv F
 -0.200000  0.000000  0.428571    0.00063492  85 t-inv F
  0.200000 -0.200000  0.428571    0.00063492  85 t-inv F
 -0.266667  0.266667  0.428571    0.00063492  86 t-inv F
  0.000000 -0.266667  0.428571    0.00063492  86 t-inv F
  0.000000  0.266667  0.428571    0.00063492  86 t-inv F
 -0.266667  0.000000  0.428571    0.00063492  86 t-inv F
  0.266667 -0.266667  0.428571    0.00063492  86 t-inv F
 -0.333333  0.333333  0.428571    0.00063492  87 t-inv F
  0.000000 -0.333333  0.428571    0.00063492  87 t-inv F
  0.000000  0.333333  0.428571    0.00063492  87 t-inv F
 -0.333333  0.000000  0.428571    0.00063492  87 t-inv F
  0.333333 -0.333333  0.428571    0.00063492  87 t-inv F
 -0.400000  0.400000  0.428571    0.00063492  88 t-inv F
  0.000000 -0.400000  0.428571    0.00063492  88 t-inv F
  0.000000  0.400000  0.428571    0.00063492  88 t-inv F
 -0.400000  0.000000  0.428571    0.00063492  88 t-inv F
  0.400000 -0.400000  0.428571    0.00063492  88 t-inv F
 -0.466667  0.466667  0.428571    0.00063492  89 t-inv F
  0.000000 -0.466667  0.428571    0.00063492  89 t-inv F
  0.000000  0.466667  0.428571    0.00063492  89 t-inv F
 -0.466667  0.000000  0.428571    0.00063492  89 t-inv F
  0.466667 -0.466667  0.428571    0.00063492  89 t-inv F
 -0.133333  0.066667  0.428571    0.00063492  90 t-inv F
  0.066667 -0.133333  0.428571    0.00063492  90 t-inv F
 -0.066667  0.133333  0.428571    0.00063492  90 t-inv F
  0.133333 -0.066667  0.428571    0.00063492  90 t-inv F
 -0.066667 -0.066667  0.428571    0.00063492  90 t-inv F
 -0.200000  0.133333  0.428571    0.00063492  91 t-inv F
  0.066667 -0.200000  0.428571    0.00063492  91 t-inv F
 -0.133333  0.200000  0.428571    0.00063492  91 t-inv F
  0.200000 -0.066667  0.428571    0.00063492  91 t-inv F
 -0.066667 -0.133333  0.428571    0.00063492  91 t-inv F
 -0.066667  0.200000  0.428571    0.00063492  91 t-inv F
 -0.133333 -0.066667  0.428571    0.00063492  91 t-inv F
  0.200000 -0.133333  0.428571    0.00063492  91 t-inv F
  0.066667  0.133333  0.428571    0.00063492  91 t-inv F
  0.133333 -0.200000  0.428571    0.00063492  91 t-inv F
 -0.200000  0.066667  0.428571    0.00063492  91 t-inv F
 -0.266667  0.200000  0.428571    0.00063492  92 t-inv F
  0.066667 -0.266667  0.428571    0.00063492  92 t-inv F
 -0.200000  0.266667  0.428571    0.00063492  92 t-inv F
  0.266667 -0.066667  0.428571    0.00063492  92 t-inv F
 -0.066667 -0.200000  0.428571    0.00063492  92 t-inv F
 -0.066667  0.266667  0.428571    0.00063492  92 t-inv F
 -0.200000 -0.066667  0.428571    0.00063492  92 t-inv F
  0.266667 -0.200000  0.428571    0.00063492  92 t-inv F
  0.066667  0.200000  0.428571    0.00063492  92 t-inv F
  0.200000 -0.266667  0.428571    0.00063492  92 t-inv F
 -0.266667  0.066667  0.428571    0.00063492  92 t-inv F
 -0.333333  0.266667  0.428571    0.00063492  93 t-inv F
  0.066667 -0.333333  0.428571    0.00063492  93 t-inv F
 -0.266667  0.333333  0.428571    0.00063492  93 t-inv F
  0.333333 -0.066667  0.428571    0.00063492  93 t-inv F
 -0.066667 -0.266667  0.428571    0.00063492  93 t-inv F
 -0.066667  0.333333  0.428571    0.00063492  93 t-inv F
 -0.266667 -0.066667  0.428571    0.00063492  93 t-inv F
  0.333333 -0.266667  0.428571    0.00063492  93 t-inv F
  0.066667  0.266667  0.428571    0.00063492  93 t-inv F
  0.266667 -0.333333  0.428571    0.00063492  93 t-inv F
 -0.333333  0.066667  0.428571    0.00063492  93 t-inv F
 -0.400000  0.333333  0.428571    0.00063492  94 t-inv F
  0.066667 -0.400000  0.428571    0.00063492  94 t-inv F
 -0.333333  0.400000  0.428571    0.00063492  94 t-inv F
  0.400000 -0.066667  0.428571    0.00063492  94 t-inv F
 -0.066667 -0.333333  0.428571    0.00063492  94 t-inv F
 -0.066667  0.400000  0.428571    0.00063492  94 t-inv F
 -0.333333 -0.066667  0.428571    0.00063492  94 t-inv F
  0.400000 -0.333333  0.428571    0.00063492  94 t-inv F
  0.066667  0.333333  0.428571    0.00063492  94 t-inv F
  0.333333 -0.400000  0.428571    0.00063492  94 t-inv F
 -0.400000  0.066667  0.428571    0.00063492  94 t-inv F
 -0.466667  0.400000  0.428571    0.00063492  95 t-inv F
  0.066667 -0.466667  0.428571    0.00063492  95 t-inv F
 -0.400000  0.466667  0.428571    0.00063492  95 t-inv F
  0.466667 -0.066667  0.428571    0.00063492  95 t-inv F
 -0.066667 -0.400000  0.428571    0.00063492  95 t-inv F
 -0.066667  0.466667  0.428571    0.00063492  95 t-inv F
 -0.400000 -0.066667  0.428571    0.00063492  95 t-inv F
  0.466667 -0.400000  0.428571    0.00063492  95 t-inv F
  0.066667  0.400000  0.428571    0.00063492  95 t-inv F
  0.400000 -0.466667  0.428571    0.00063492  95 t-inv F
 -0.466667  0.066667  0.428571    0.00063492  95 t-inv F
 -0.533333  0.466667  0.428571    0.00063492  96 t-inv F
  0.066667 -0.533333  0.428571    0.00063492  96 t-inv F
 -0.466667  0.533333  0.428571    0.00063492  96 t-inv F
  0.533333 -0.066667  0.428571    0.00063492  96 t-inv F
 -0.066667 -0.466667  0.428571    0.00063492  96 t-inv F
 -0.266667  0.133333  0.428571    0.00063492  97 t-inv F
  0.133333 -0.266667  0.428571    0.00063492  97 t-inv F
 -0.133333  0.266667  0.428571    0.00063492  97 t-inv F
  0.266667 -0.133333  0.428571    0.00063492  97 t-inv F
 -0.133333 -0.133333  0.428571    0.00063492  97 t-inv F
 -0.333333  0.200000  0.428571    0.00063492  98 t-inv F
  0.133333 -0.333333  0.428571    0.00063492  98 t-inv F
 -0.200000  0.333333  0.428571    0.00063492  98 t-inv F
  0.333333 -0.133333  0.428571    0.00063492  98 t-inv F
 -0.133333 -0.200000  0.428571    0.00063492  98 t-inv F
 -0.133333  0.333333  0.428571    0.00063492  98 t-inv F
 -0.200000 -0.133333  0.428571    0.00063492  98 t-inv F
  0.333333 -0.200000  0.428571    0.00063492  98 t-inv F
  0.133333  0.200000  0.428571    0.00063492  98 t-inv F
  0.200000 -0.333333  0.428571    0.00063492  98 t-inv F
 -0.333333  0.133333  0.428571    0.00063492  98 t-inv F
 -0.400000  0.266667  0.428571    0.00063492  99 t-inv F
  0.133333 -0.400000  0.428571    0.00063492  99 t-inv F
 -0.266667  0.400000  0.428571    0.00063492  99 t-inv F
  0.400000 -0.133333  0.428571    0.00063492  99 t-inv F
 -0.133333 -0.266667  0.428571    0.00063492  99 t-inv F
 -0.133333  0.400000  0.428571    0.00063492  99 t-inv F
 -0.266667 -0.133333  0.428571    0.00063492  99 t-inv F
  0.400000 -0.266667  0.428571    0.00063492  99 t-inv F
  0.133333  0.266667  0.428571    0.00063492  99 t-inv F
  0.266667 -0.400000  0.428571    0.00063492  99 t-inv F
 -0.400000  0.133333  0.428571    0.00063492  99 t-inv F
 -0.466667  0.333333  0.428571    0.00063492 100 t-inv F
  0.133333 -0.466667  0.428571    0.00063492 100 t-inv F
 -0.333333  0.466667  0.428571    0.00063492 100 t-inv F
  0.466667 -0.133333  0.428571    0.00063492 100 t-inv F
 -0.133333 -0.333333  0.428571    0.00063492 100 t-inv F
 -0.133333  0.466667  0.428571    0.00063492 100 t-inv F
 -0.333333 -0.133333  0.428571    0.00063492 100 t-inv F
  0.466667 -0.333333  0.428571    0.00063492 100 t-inv F
  0.133333  0.333333  0.428571    0.00063492 100 t-inv F
  0.333333 -0.466667  0.428571    0.00063492 100 t-inv F
 -0.466667  0.133333  0.428571    0.00063492 100 t-inv F
 -0.533333  0.400000  0.428571    0.00063492 101 t-inv F
  0.133333 -0.533333  0.428571    0.00063492 101 t-inv F
 -0.400000  0.533333  0.428571    0.00063492 101 t-inv F
  0.533333 -0.133333  0.428571    0.00063492 101 t-inv F
 -0.133333 -0.400000  0.428571    0.00063492 101 t-inv F
 -0.133333  0.533333  0.428571    0.00063492 101 t-inv F
 -0.400000 -0.133333  0.428571    0.00063492 101 t-inv F
  0.533333 -0.400000  0.428571    0.00063492 101 t-inv F
  0.133333  0.400000  0.428571    0.00063492 101 t-inv F
  0.400000 -0.533333  0.428571    0.00063492 101 t-inv F
 -0.533333  0.133333  0.428571    0.00063492 101 t-inv F
 -0.400000  0.200000  0.428571    0.00063492 102 t-inv F
  0.200000 -0.400000  0.428571    0.00063492 102 t-inv F
 -0.200000  0.400000  0.428571    0.00063492 102 t-inv F
  0.400000 -0.200000  0.428571    0.00063492 102 t-inv F
 -0.200000 -0.200000  0.428571    0.00063492 102 t-inv F
 -0.466667  0.266667  0.428571    0.00063492 103 t-inv F
  0.200000 -0.466667  0.428571    0.00063492 103 t-inv F
 -0.266667  0.466667  0.428571    0.00063492 103 t-inv F
  0.466667 -0.200000  0.428571    0.00063492 103 t-inv F
 -0.200000 -0.266667  0.428571    0.00063492 103 t-inv F
 -0.200000  0.466667  0.428571    0.00063492 103 t-inv F
 -0.266667 -0.200000  0.428571    0.00063492 103 t-inv F
  0.466667 -0.266667  0.428571    0.00063492 103 t-inv F
  0.200000  0.266667  0.428571    0.00063492 103 t-inv F
  0.266667 -0.466667  0.428571    0.00063492 103 t-inv F
 -0.466667  0.200000  0.428571    0.00063492 103 t-inv F
 -0.533333  0.333333  0.428571    0.00063492 104 t-inv F
  0.200000 -0.533333  0.428571    0.00063492 104 t-inv F
 -0.333333  0.533333  0.428571    0.00063492 104 t-inv F
  0.533333 -0.200000  0.428571    0.00063492 104 t-inv F
 -0.200000 -0.333333  0.428571    0.00063492 104 t-inv F
 -0.200000  0.533333  0.428571    0.00063492 104 t-inv F
 -0.333333 -0.200000  0.428571    0.00063492 104 t-inv F
  0.533333 -0.333333  0.428571    0.00063492 104 t-inv F
  0.200000  0.333333  0.428571    0.00063492 104 t-inv F
  0.333333 -0.533333  0.428571    0.00063492 104 t-inv F
 -0.533333  0.200000  0.428571    0.00063492 104 t-inv F
 -0.600000  0.400000  0.428571    0.00063492 105 t-inv F
  0.200000 -0.600000  0.428571    0.00063492 105 t-inv F
 -0.400000  0.600000  0.428571    0.00063492 105 t-inv F
  0.600000 -0.200000  0.428571    0.00063492 105 t-inv F
 -0.200000 -0.400000  0.428571    0.00063492 105 t-inv F
 -0.533333  0.266667  0.428571    0.00063492 106 t-inv F
  0.266667 -0.533333  0.428571    0.00063492 106 t-inv F
 -0.266667  0.533333  0.428571    0.00063492 106 t-inv F
  0.533333 -0.266667  0.428571    0.00063492 106 t-inv F
 -0.266667 -0.266667  0.428571    0.00063492 106 t-inv F
 -0.600000  0.333333  0.428571    0.00063492 107 t-inv F
  0.266667 -0.600000  0.428571    0.00063492 107 t-inv F
 -0.333333  0.600000  0.428571    0.00063492 107 t-inv F
  0.600000 -0.266667  0.428571    0.00063492 107 t-inv F
 -0.266667 -0.333333  0.428571    0.00063492 107 t-inv F
 -0.266667  0.600000  0.428571    0.00063492 107 t-inv F
 -0.333333 -0.266667  0.428571    0.00063492 107 t-inv F
  0.600000 -0.333333  0.428571    0.00063492 107 t-inv F
  0.266667  0.333333  0.428571    0.00063492 107 t-inv F
  0.333333 -0.600000  0.428571    0.00063492 107 t-inv F
 -0.600000  0.266667  0.428571    0.00063492 107 t-inv F
 -0.333333  0.666667  0.428571    0.00063492 108 t-inv F
  0.000000  0.000000 -0.142857    0.00063492  28 t-inv T
 -0.066667  0.000000 -0.142857    0.00063492  29 t-inv T
  0.066667 -0.066667 -0.142857    0.00063492  29 t-inv T
  0.000000  0.066667 -0.142857    0.00063492  29 t-inv T
  0.000000 -0.066667 -0.142857    0.00063492  29 t-inv T
  0.066667  0.000000 -0.142857    0.00063492  29 t-inv T
 -0.066667  0.066667 -0.142857    0.00063492  29 t-inv T
 -0.133333  0.000000 -0.142857    0.00063492  30 t-inv T
  0.133333 -0.133333 -0.142857    0.00063492  30 t-inv T
  0.000000  0.133333 -0.142857    0.00063492  30 t-inv T
  0.000000 -0.133333 -0.142857    0.00063492  30 t-inv T
  0.133333  0.000000 -0.142857    0.00063492  30 t-inv T
 -0.133333  0.133333 -0.142857    0.00063492  30 t-inv T
 -0.200000  0.000000 -0.142857    0.00063492  31 t-inv T
  0.200000 -0.200000 -0.142857    0.00063492  31 t-inv T
  0.000000  0.200000 -0.142857    0.00063492  31 t-inv T
  0.000000 -0.200000 -0.142857    0.00063492  31 t-inv T
  0.200000  0.000000 -0.142857    0.00063492  31 t-inv T
 -0.200000  0.200000 -0.142857    0.00063492  31 t-inv T
 -0.266667  0.000000 -0.142857    0.00063492  32 t-inv T
  0.266667 -0.266667 -0.142857    0.00063492  32 t-inv T
  0.000000  0.266667 -0.142857    0.00063492  32 t-inv T
  0.000000 -0.266667 -0.142857    0.00063492  32 t-inv T
  0.266667  0.000000 -0.142857    0.00063492  32 t-inv T
 -0.266667  0.266667 -0.142857    0.00063492  32 t-inv T
 -0.333333  0.000000 -0.142857    0.00063492  33 t-inv T
  0.333333 -0.333333 -0.142857    0.00063492  33 t-inv T
  0.000000  0.333333 -0.142857    0.00063492  33 t-inv T
  0.000000 -0.333333 -0.142857    0.00063492  33 t-inv T
  0.333333  0.000000 -0.142857    0.00063492  33 t-inv T
 -0.333333  0.333333 -0.142857    0.00063492  33 t-inv T
 -0.400000  0.000000 -0.142857    0.00063492  34 t-inv T
  0.400000 -0.400000 -0.142857    0.00063492  34 t-inv T
  0.000000  0.400000 -0.142857    0.00063492  34 t-inv T
  0.000000 -0.400000 -0.142857    0.00063492  34 t-inv T
  0.400000  0.000000 -0.142857    0.00063492  34 t-inv T
 -0.400000  0.400000 -0.142857    0.00063492  34 t-inv T
 -0.466667  0.000000 -0.142857    0.00063492  35 t-inv T
  0.466667 -0.466667 -0.142857    0.00063492  35 t-inv T
  0.000000  0.466667 -0.142857    0.00063492  35 t-inv T
  0.000000 -0.466667 -0.142857    0.00063492  35 t-inv T
  0.466667  0.000000 -0.142857    0.00063492  35 t-inv T
 -0.466667  0.466667 -0.142857    0.00063492  35 t-inv T
 -0.066667 -0.066667 -0.142857    0.00063492  36 t-inv T
  0.133333 -0.066667 -0.142857    0.00063492  36 t-inv T
 -0.066667  0.133333 -0.142857    0.00063492  36 t-inv T
  0.066667 -0.133333 -0.142857    0.00063492  36 t-inv T
 -0.133333  0.066667 -0.142857    0.00063492  36 t-inv T
  0.066667  0.066667 -0.142857    0.00063492  36 t-inv T
 -0.133333 -0.066667 -0.142857    0.00063492  37 t-inv T
  0.200000 -0.133333 -0.142857    0.00063492  37 t-inv T
 -0.066667  0.200000 -0.142857    0.00063492  37 t-inv T
  0.133333 -0.200000 -0.142857    0.00063492  37 t-inv T
 -0.200000  0.066667 -0.142857    0.00063492  37 t-inv T
  0.066667  0.133333 -0.142857    0.00063492  37 t-inv T
  0.066667 -0.200000 -0.142857    0.00063492  37 t-inv T
  0.133333  0.066667 -0.142857    0.00063492  37 t-inv T
 -0.200000  0.133333 -0.142857    0.00063492  37 t-inv T
 -0.066667 -0.133333 -0.142857    0.00063492  37 t-inv T
 -0.133333  0.200000 -0.142857    0.00063492  37 t-inv T
[...]
      1       0.0089      0.00000
      2       0.0152      0.00000
      3      -0.2385      0.00000
      4       0.1135      0.00000
      5      -0.1692      0.00000
      6      -0.4499      0.00000
      7       0.4968      0.00000
      8       0.6156      0.00000
      9      -2.0361      0.00000
     10       2.7432      0.00000
     11      -1.0561      0.00000
     12       0.0355      0.00000

 k-point 164 :      -0.2000    0.5333    0.4286
  band No.  band energies     occupation 
      1       0.0122      0.00000
      2       0.0259      0.00000
      3      -0.2764      0.00000
      4       0.0964      0.00000
      5      -0.2108      0.00000
      6      -0.4000      0.00000
      7       0.6367      0.00000
      8       0.6647      0.00000
      9      -0.9580      0.00000
     10       1.6467      0.00000
     11      -1.3744      0.00000
     12      -0.0865      0.00000

 k-point 165 :      -0.2667    0.6000    0.4286
  band No.  band energies     occupation 
      1       0.0204      0.00000
      2       0.0246      0.00000
      3      -0.1518      0.00000
      4       0.0410      0.00000
      5      -0.3107      0.00000
      6      -0.3969      0.00000
      7       0.7152      0.00000
      8       0.7479      0.00000
      9      -0.0655      0.00000
     10       0.7967      0.00000
     11      -2.0248      0.00000
     12       0.4688      0.00000


------------------------ aborting loop because EDIFF is reached ----------------------------------------


    FORLOC:  cpu time      0.0023: real time      0.0023
    FORNL :  cpu time      0.2212: real time      0.2218
    STRESS:  cpu time      0.9957: real time      1.0024
    FORCOR:  cpu time      0.0225: real time      0.0225
    FORLOC:  cpu time      0.0025: real time      0.0025
    FORNL :  cpu time      0.2273: real time      0.2278
    STRESS:  cpu time      1.1890: real time      1.2198
    FORCOR:  cpu time      0.0238: real time      0.0238
    FORLOC:  cpu time      0.0026: real time      0.0027
    FORNL :  cpu time      0.2699: real time      0.2724
    STRESS:  cpu time      1.0712: real time      1.0885
    FORCOR:  cpu time      0.0284: real time      0.0342
    FORLOC:  cpu time      0.0023: real time      0.0024
    FORNL :  cpu time      0.2448: real time      0.2481
    STRESS:  cpu time      0.9964: real time      1.0068
    FORCOR:  cpu time      0.0283: real time      0.0284

 INTERNAL STRAIN TENSOR  FOR ION    3  DIRECTION 3   (eV/Angst):
 -----------------------------------------------------------------------------
     5.60945  0.00000  0.00000
     0.00000  5.60945 -0.00000
    -0.00000  0.00000-12.44406


 POSITION                   FORCE-CONSTANT FOR ION    3 DIRECTION 3 (eV/Angst/Angst)
 -----------------------------------------------------------------------------------
      0.89800      1.55539      0.00800         0.000000      0.000000      6.576826
      1.79601      0.00000      2.49865         0.000000     -0.000000      6.173186
      0.89800      1.55539      1.90980        -0.000000      0.000000    -19.653702
      1.79601      0.00000      4.40045        -0.000000      0.000000      6.903690
 -----------------------------------------------------------------------------------
    total drift:                                0.000000     -0.000000     -0.000000


 BORN EFFECTIVE CHARGE FOR ION    3 DIRECTION 3 :   0.000  -0.000  -2.667
                   rigid augmentation           :   0.000   0.000  -0.234
                   ionic contribution           :   0.000   0.000   5.000
                   Berry contribution           :   0.000  -0.000  -7.433


--------------------------------------------------------------------------------------------------------


  LATTYP: Found a hexagonal cell.
 ALAT       =     3.1107748889
 C/A-ratio  =     1.6013051171
  
  Lattice vectors:
  
 A1 = (   2.6940100793,  -1.5553874445,   0.0000000000)
 A2 = (   0.0000000000,   3.1107748889,   0.0000000000)
 A3 = (   0.0000000000,   0.0000000000,   4.9812997477)


Analysis of symmetry for initial positions (statically):
=====================================================================
 Subroutine PRICEL returns:
 Original cell was already a primitive cell.
 

 Routine SETGRP: Setting up the symmetry group for a 
 hexagonal supercell.


 Subroutine GETGRP returns: Found 12 space group operations
 (whereof  6 operations were pure point group operations)
 out of a pool of 24 trial point group operations.


The static configuration has the point symmetry C_3v.
 The point group associated with its full space group is C_6v.


Analysis of symmetry for dynamics (positions and initial velocities):
=====================================================================
 Subroutine PRICEL returns:
 Original cell was already a primitive cell.
 

 Routine SETGRP: Setting up the symmetry group for a 
 hexagonal supercell.


 Subroutine GETGRP returns: Found 12 space group operations
 (whereof  6 operations were pure point group operations)
 out of a pool of 24 trial point group operations.


The dynamic configuration has the point symmetry C_3v.
 The point group associated with its full space group is C_6v.


 Subroutine INISYM returns: Found 12 space group operations
 (whereof  6 operations are pure point group operations),
 and found     1 'primitive' translations



--------------------------------------------------------------------------------------------------------




 MACROSCOPIC STATIC DIELECTRIC TENSOR (including local field effects in DFT)
 ------------------------------------------------------
           4.432089     0.000000     0.000000
           0.000000     4.432089     0.000000
          -0.000000     0.000000     4.654620
 ------------------------------------------------------


 PIEZOELECTRIC TENSOR (including local field effects)  for field in x, y, z        (e  Angst)
          XX          YY          ZZ          XY          YZ          ZX
  --------------------------------------------------------------------------------
  x     0.00000     0.00000     0.00000     0.00000     0.00000     0.87635
  y    -0.00000     0.00000     0.00000     0.00000     0.87635     0.00000
  z     0.68462     0.68462    -1.04544     0.00000     0.00000     0.00000

 PIEZOELECTRIC TENSOR (including local field effects)  for field in x, y, z        (C/m^2)
          XX          YY          ZZ          XY          YZ          ZX
  --------------------------------------------------------------------------------
  x     0.00000     0.00000     0.00000     0.00000     0.00000     0.33634
  y    -0.00000     0.00000     0.00000     0.00000     0.33634     0.00000
  z     0.26275     0.26275    -0.40124     0.00000     0.00000     0.00000
 
 BORN EFFECTIVE CHARGES (including local field effects) (in |e|, cummulative output)
 ---------------------------------------------------------------------------------
 ion    1
    1     2.50919    -0.00000     0.00000
    2    -0.00000     2.50919     0.00000
    3    -0.00000    -0.00000     2.67105
 ion    2
    1     2.50919    -0.00000     0.00000
    2     0.00000     2.50919     0.00000
    3     0.00000     0.00000     2.67105
 ion    3
    1    -2.50919    -0.00000     0.00000
    2     0.00000    -2.50919     0.00000
    3     0.00000    -0.00000    -2.67105
 ion    4
    1    -2.50919    -0.00000     0.00000
    2    -0.00000    -2.50919     0.00000
    3     0.00000    -0.00000    -2.67105

 INTERNAL STRAIN TENSOR FOR ION    1 for displacements in x,y,z  (eV/Angst):
          X           Y           Z          XY          YZ          ZX
  --------------------------------------------------------------------------------
  x    -8.63905     8.63905    -0.00000     0.00000     0.00000    -5.27270
  y     0.00000     0.00000     0.00000     8.63905    -4.92938    -0.00000
  z    -5.62690    -5.62690    12.47826     0.00000    -0.00000     0.00000

 INTERNAL STRAIN TENSOR FOR ION    2 for displacements in x,y,z  (eV/Angst):
          X           Y           Z          XY          YZ          ZX
  --------------------------------------------------------------------------------
  x     8.63905    -8.63905     0.00000     0.00000     0.00000    -5.27270
  y     0.00000     0.00000     0.00000    -8.63905    -4.92938     0.00000
  z    -5.62690    -5.62690    12.47826     0.00000     0.00000     0.00000

 INTERNAL STRAIN TENSOR FOR ION    3 for displacements in x,y,z  (eV/Angst):
          X           Y           Z          XY          YZ          ZX
  --------------------------------------------------------------------------------
  x   -10.69623    10.69623     0.00000     0.00000     0.00000     5.37223
  y     0.00000     0.00000     0.00000    10.69623     5.42157    -0.00000
  z     5.60945     5.60945   -12.44406     0.00000     0.00000     0.00000

 INTERNAL STRAIN TENSOR FOR ION    4 for displacements in x,y,z  (eV/Angst):
          X           Y           Z          XY          YZ          ZX
  --------------------------------------------------------------------------------
  x    10.69623   -10.69623    -0.00000     0.00000     0.00000     5.37223
  y     0.00000     0.00000     0.00000   -10.69623     5.42157     0.00000
  z     5.60945     5.60945   -12.44406     0.00000    -0.00000    -0.00000


--------------------------------------------------------------------------------------------------------


 
 SECOND DERIVATIVES (NOT SYMMETRIZED)
 ------------------------------------
               1X          1Y          1Z          2X          2Y          2Z          3X          3Y          3Z          4X          4Y          4Z 
  1X   -15.847381    0.000000    0.000000    0.672160    0.000000    0.000000    1.442002    0.000000    0.000000   13.733219   -0.000000    0.000000
  1Y     0.000000  -15.847381    0.000000    0.000000    0.672160    0.000000    0.000000    1.442002    0.000000    0.000000   13.733219   -0.000000
  1Z     0.000000   -0.000000  -21.180064   -0.000000    0.000000    8.433193    0.000000   -0.000000    6.578147    0.000000    0.000000    6.168724
  2X     0.672160    0.000000   -0.000000  -15.847381    0.000000    0.000000   13.733219    0.000000   -0.000000    1.442002    0.000000   -0.000000
  2Y     0.000000    0.672160    0.000000    0.000000  -15.847381    0.000000    0.000000   13.733219    0.000000    0.000000    1.442002    0.000000
  2Z     0.000000    0.000000    8.433193    0.000000    0.000000  -21.180064    0.000000    0.000000    6.168724   -0.000000    0.000000    6.578147
  3X     1.441789    0.000000    0.000000   13.732754   -0.000000    0.000000  -15.873631   -0.000000    0.000000    0.699088   -0.000000   -0.000000
  3Y     0.000000    1.441789    0.000000    0.000000   13.732754    0.000000   -0.000000  -15.873631    0.000000   -0.000000    0.699088   -0.000000
  3Z     0.000000   -0.000000    6.576826    0.000000    0.000000    6.173186    0.000000    0.000000  -19.653702    0.000000    0.000000    6.903690
  4X    13.732754    0.000000   -0.000000    1.441789    0.000000    0.000000    0.699088    0.000000    0.000000  -15.873631    0.000000   -0.000000
  4Y     0.000000   13.732754    0.000000    0.000000    1.441789    0.000000    0.000000    0.699088    0.000000    0.000000  -15.873631    0.000000
  4Z     0.000000   -0.000000    6.173186    0.000000    0.000000    6.576826   -0.000000    0.000000    6.903690   -0.000000    0.000000  -19.653702
 
 
 Eigenvectors and eigenvalues of the dynamical matrix
 ----------------------------------------------------
 
 
   1 f  =   21.534090 THz   135.302678 2PiTHz  718.299924 cm-1    89.057800 meV
             X         Y         Z           dx          dy          dz
      0.898003  1.555387  0.008003    -0.000000    0.000000    0.018486  
      1.796007  0.000000  2.498653    -0.000000    0.000000   -0.018486  
      0.898003  1.555387  1.909798     0.000000   -0.000000   -0.706865  
      1.796007  0.000000  4.400448     0.000000   -0.000000    0.706865  
 
   2 f  =   20.058566 THz   126.031686 2PiTHz  669.081737 cm-1    82.955525 meV
             X         Y         Z           dx          dy          dz
      0.898003  1.555387  0.008003     0.413296    0.003258   -0.000000  
      1.796007  0.000000  2.498653     0.413296    0.003258   -0.000000  
      0.898003  1.555387  1.909798    -0.573721   -0.004523    0.000000  
      1.796007  0.000000  4.400448    -0.573721   -0.004523    0.000000  
 
   3 f  =   20.058566 THz   126.031686 2PiTHz  669.081737 cm-1    82.955525 meV
             X         Y         Z           dx          dy          dz
      0.898003  1.555387  0.008003     0.003258   -0.413296   -0.000000  
      1.796007  0.000000  2.498653     0.003258   -0.413296    0.000000  
      0.898003  1.555387  1.909798    -0.004523    0.573721   -0.000000  
      1.796007  0.000000  4.400448    -0.004523    0.573721    0.000000  
 
   4 f  =   19.724646 THz   123.933608 2PiTHz  657.943379 cm-1    81.574546 meV
             X         Y         Z           dx          dy          dz
      0.898003  1.555387  0.008003     0.365749    0.115313   -0.000000  
      1.796007  0.000000  2.498653    -0.365749   -0.115313   -0.000000  
      0.898003  1.555387  1.909798     0.566587    0.178633    0.000000  
      1.796007  0.000000  4.400448    -0.566587   -0.178633    0.000000  
 
   5 f  =   19.724646 THz   123.933608 2PiTHz  657.943379 cm-1    81.574546 meV
             X         Y         Z           dx          dy          dz
      0.898003  1.555387  0.008003     0.115313   -0.365749   -0.000000  
      1.796007  0.000000  2.498653    -0.115313    0.365749    0.000000  
      0.898003  1.555387  1.909798     0.178633   -0.566587   -0.000000  
      1.796007  0.000000  4.400448    -0.178633    0.566587    0.000000  
 
   6 f  =   18.385514 THz   115.519592 2PiTHz  613.274737 cm-1    76.036342 meV
             X         Y         Z           dx          dy          dz
      0.898003  1.555387  0.008003     0.000000    0.000000    0.413269  
      1.796007  0.000000  2.498653    -0.000000   -0.000000    0.413269  
      0.898003  1.555387  1.909798     0.000000    0.000000   -0.573767  
      1.796007  0.000000  4.400448    -0.000000   -0.000000   -0.573767  
 
   7 f  =   16.374066 THz   102.881292 2PiTHz  546.180054 cm-1    67.717666 meV
             X         Y         Z           dx          dy          dz
      0.898003  1.555387  0.008003    -0.000000   -0.000000    0.706865  
      1.796007  0.000000  2.498653     0.000000    0.000000   -0.706865  
      0.898003  1.555387  1.909798    -0.000000   -0.000000    0.018486  
      1.796007  0.000000  4.400448     0.000000    0.000000   -0.018486  
 
   8 f  =    7.061727 THz    44.370137 2PiTHz  235.553844 cm-1    29.204941 meV
             X         Y         Z           dx          dy          dz
      0.898003  1.555387  0.008003     0.582293   -0.117750    0.000000  
      1.796007  0.000000  2.498653    -0.582293    0.117750    0.000000  
      0.898003  1.555387  1.909798    -0.375887    0.076011    0.000000  
      1.796007  0.000000  4.400448     0.375887   -0.076011    0.000000  
 
   9 f  =    7.061727 THz    44.370137 2PiTHz  235.553844 cm-1    29.204941 meV
             X         Y         Z           dx          dy          dz
      0.898003  1.555387  0.008003    -0.117750   -0.582293   -0.000000  
      1.796007  0.000000  2.498653     0.117750    0.582293   -0.000000  
      0.898003  1.555387  1.909798     0.076011    0.375887   -0.000000  
      1.796007  0.000000  4.400448    -0.076011   -0.375887   -0.000000  
 
  10 f/i=    0.000213 THz     0.001336 2PiTHz    0.007094 cm-1     0.000880 meV
             X         Y         Z           dx          dy          dz
      0.898003  1.555387  0.008003     0.549443   -0.165193    0.000000  
      1.796007  0.000000  2.498653     0.549443   -0.165193    0.000000  
      0.898003  1.555387  1.909798     0.395806   -0.119002    0.000000  
      1.796007  0.000000  4.400448     0.395806   -0.119002    0.000000  
 
  11 f/i=    0.000213 THz     0.001336 2PiTHz    0.007094 cm-1     0.000880 meV
             X         Y         Z           dx          dy          dz
      0.898003  1.555387  0.008003    -0.165193   -0.549443   -0.000000  
      1.796007  0.000000  2.498653    -0.165193   -0.549443   -0.000000  
      0.898003  1.555387  1.909798    -0.119002   -0.395806   -0.000000  
      1.796007  0.000000  4.400448    -0.119002   -0.395806   -0.000000  
 
  12 f/i=    0.001074 THz     0.006749 2PiTHz    0.035831 cm-1     0.004442 meV
             X         Y         Z           dx          dy          dz
      0.898003  1.555387  0.008003     0.000000    0.000000   -0.573767  
      1.796007  0.000000  2.498653     0.000000    0.000000   -0.573767  
      0.898003  1.555387  1.909798     0.000000    0.000000   -0.413269  
      1.796007  0.000000  4.400448     0.000000    0.000000   -0.413269  
 


--------------------------------------------------------------------------------------------------------




 MACROSCOPIC STATIC DIELECTRIC TENSOR IONIC CONTRIBUTION
 ------------------------------------------------------
           3.596893    -0.000000    -0.000000
          -0.000000     3.596893     0.000000
          -0.000000     0.000000     4.851674
 ------------------------------------------------------


 ELASTIC MODULI CONTR FROM IONIC RELAXATION (kBar)
 Direction    XX          YY          ZZ          XY          YZ          ZX
 --------------------------------------------------------------------------------
 XX        -725.1237    345.0274    421.5282      0.0000      0.0000     -0.0000
 YY         345.0274   -725.1237    421.5282     -0.0000     -0.0000      0.0000
 ZZ         421.5282    421.5282   -934.9530     -0.0000      0.0000     -0.0000
 XY           0.0000     -0.0000     -0.0000   -535.0755      0.0000      0.0000
 YZ           0.0000     -0.0000      0.0000      0.0000   -135.4892      0.0000
 ZX          -0.0000      0.0000     -0.0000     -0.0000      0.0000   -143.2947
 --------------------------------------------------------------------------------


 PIEZOELECTRIC TENSOR IONIC CONTR  for field in x, y, z        (C/m^2)
          XX          YY          ZZ          XY          YZ          ZX
  --------------------------------------------------------------------------------
  x    -0.00000     0.00000    -0.00000    -0.00000     0.00000    -0.67554
  y     0.00000    -0.00000     0.00000     0.00000    -0.65688     0.00000
  z    -0.90355    -0.90355     2.00407     0.00000    -0.00000     0.00000


--------------------------------------------------------------------------------------------------------


 writing wavefunctions
     LOOP+:  cpu time   2547.9864: real time    514.7269
    4ORBIT:  cpu time      0.0000: real time      0.0000
 BZINTS: Fermi energy:   10.368305;   16.000000 electrons
         Band energy: 0.144538E+02;  BLOECHL correction:   -0.000000

 total amount of memory used by VASP MPI-rank0    63935. kBytes
=======================================================================

   base      :      30000. kBytes
   nonl-proj :      10749. kBytes
   grid      :       6461. kBytes
   one-center:         12. kBytes
   wavefun   :      16713. kBytes
 
  
  
 General timing and accounting informations for this job:
 ========================================================
  
                  Total CPU time used (sec):     2549.373
                            User time (sec):     2492.976
                          System time (sec):       56.397
                         Elapsed time (sec):      515.326
  
                   Maximum memory used (kb):   949256192.
                   Average memory used (kb):          N/A
  
                          Minor page faults:       232244
                          Major page faults:          333
                 Voluntary context switches:           19
