 128  128
1 1
     2.657485203918582    -0.000000000000000     0.000000000000000
    -0.000000000000000     2.657485203918583     0.000000000000000
     0.000000000000000     0.000000000000000     2.657485203918581
1 2
     0.028233088869902     0.000000000000000     0.000000000000000
     0.000000000000000    -0.009155889292118    -0.388188541395961
     0.000000000000000    -0.388188541395961    -0.009155889292118
1 3
     0.007718506934118     0.000000000000000     0.000000000000000
    -0.000000000000000    -0.028750525305578    -0.054215998233916
     0.000000000000000    -0.054215998233916    -0.028750525305578
1 4
     0.028233088869902     0.000000000000000     0.000000000000000
    -0.000000000000000    -0.009155889292118    -0.388188541395961
     0.000000000000000    -0.388188541395961    -0.009155889292118
1 5
    -0.009155889292118    -0.000000000000000    -0.388188541395961
    -0.000000000000000     0.028233088869902    -0.000000000000000
    -0.388188541395961    -0.000000000000000    -0.009155889292118
1 6
    -0.002367310639337    -0.007642940421150    -0.016567423494853
    -0.007642940421150    -0.002367310639337    -0.016567423494853
    -0.016567423494853    -0.016567423494853    -0.026708400921512
1 7
    -0.002367310639337     0.016567423494853     0.007642940421150
     0.016567423494853    -0.026708400921512    -0.016567423494853
     0.007642940421150    -0.016567423494853    -0.002367310639337
1 8
    -0.009155889292118     0.388188541395961    -0.000000000000000
     0.388188541395961    -0.009155889292118     0.000000000000000
     0.000000000000000     0.000000000000000     0.028233088869902
1 9
    -0.028750525305578    -0.000000000000000    -0.054215998233916
    -0.000000000000000     0.007718506934118    -0.000000000000000
    -0.054215998233916    -0.000000000000000    -0.028750525305578
1 10
    -0.026708400921512     0.016567423494853    -0.016567423494853
     0.016567423494853    -0.002367310639337     0.007642940421150
    -0.016567423494853     0.007642940421150    -0.002367310639337
1 11
    -0.028750525305578     0.054215998233916    -0.000000000000000
     0.054215998233916    -0.028750525305578     0.000000000000000
     0.000000000000000    -0.000000000000000     0.007718506934118
1 12
    -0.026708400921512     0.016567423494853    -0.016567423494853
     0.016567423494853    -0.002367310639337     0.007642940421150
    -0.016567423494853     0.007642940421150    -0.002367310639337
1 13
    -0.009155889292118    -0.000000000000000    -0.388188541395961
    -0.000000000000000     0.028233088869902    -0.000000000000000
    -0.388188541395961    -0.000000000000000    -0.009155889292118
1 14
    -0.009155889292118     0.388188541395961    -0.000000000000000
     0.388188541395961    -0.009155889292118     0.000000000000000
     0.000000000000000     0.000000000000000     0.028233088869902
1 15
    -0.002367310639337     0.016567423494853     0.007642940421150
     0.016567423494853    -0.026708400921512    -0.016567423494853
     0.007642940421150    -0.016567423494853    -0.002367310639337
1 16
    -0.002367310639337    -0.007642940421150    -0.016567423494853
    -0.007642940421150    -0.002367310639337    -0.016567423494853
    -0.016567423494853    -0.016567423494853    -0.026708400921512
1 17
    -0.009155889292118    -0.388188541395961    -0.000000000000000
    -0.388188541395961    -0.009155889292118    -0.000000000000000
    -0.000000000000000    -0.000000000000000     0.028233088869902
1 18
    -0.002367310639337    -0.016567423494853    -0.007642940421150
    -0.016567423494853    -0.026708400921512    -0.016567423494853
    -0.007642940421150    -0.016567423494853    -0.002367310639337
1 19
    -0.002367310639337     0.007642940421150     0.016567423494853
     0.007642940421150    -0.002367310639337    -0.016567423494853
     0.016567423494853    -0.016567423494853    -0.026708400921512
1 20
    -0.009155889292118    -0.000000000000000     0.388188541395961
    -0.000000000000000     0.028233088869902    -0.000000000000000
     0.388188541395961     0.000000000000000    -0.009155889292118
1 21
    -0.026708400921512    -0.016567423494853    -0.016567423494853
    -0.016567423494853    -0.002367310639337    -0.007642940421150
    -0.016567423494853    -0.007642940421150    -0.002367310639337
1 22
    -0.012647582577617     0.000000000000000     0.000000000000000
    -0.000000000000000    -0.012647582577617    -0.000000000000000
     0.000000000000000    -0.000000000000000    -0.012647582577617
1 23
    -0.026708400921512     0.016567423494853     0.016567423494853
     0.016567423494853    -0.002367310639337    -0.007642940421150
     0.016567423494853    -0.007642940421150    -0.002367310639337
1 24
    -0.593605099786920     0.000000000000000    -0.000000000000000
     0.000000000000000    -0.042412535424884    -0.000000000000000
    -0.000000000000000    -0.000000000000000    -0.042412535424884
1 25
    -0.002367310639337     0.007642940421150    -0.016567423494853
     0.007642940421150    -0.002367310639337     0.016567423494853
    -0.016567423494853     0.016567423494853    -0.026708400921512
1 26
    -0.002367310639337     0.016567423494853    -0.007642940421150
     0.016567423494853    -0.026708400921512     0.016567423494853
    -0.007642940421150     0.016567423494853    -0.002367310639337
1 27
    -0.039372153042477     0.053106017364148    -0.000000000000000
     0.053106017364148    -0.039372153042477     0.000000000000000
     0.000000000000000    -0.000000000000000     0.006699566062428
1 28
    -0.039372153042477    -0.000000000000000    -0.053106017364148
    -0.000000000000000     0.006699566062428    -0.000000000000000
    -0.053106017364148    -0.000000000000000    -0.039372153042477
1 29
     0.028233088869902     0.000000000000000    -0.000000000000000
     0.000000000000000    -0.009155889292118     0.388188541395961
    -0.000000000000000     0.388188541395961    -0.009155889292118
1 30
    -0.042412535424884    -0.000000000000000    -0.000000000000000
    -0.000000000000000    -0.593605099786920     0.000000000000000
    -0.000000000000000    -0.000000000000000    -0.042412535424884
1 31
     0.006699566062428     0.000000000000000     0.000000000000000
     0.000000000000000    -0.039372153042477    -0.053106017364148
     0.000000000000000    -0.053106017364148    -0.039372153042477
1 32
    -0.042412535424884    -0.000000000000000     0.000000000000000
    -0.000000000000000    -0.042412535424884    -0.000000000000000
     0.000000000000000    -0.000000000000000    -0.593605099786920
1 33
    -0.028750525305578    -0.054215998233916    -0.000000000000000
    -0.054215998233916    -0.028750525305578    -0.000000000000000
    -0.000000000000000    -0.000000000000000     0.007718506934118
1 34
    -0.026708400921512    -0.016567423494853     0.016567423494853
    -0.016567423494853    -0.002367310639337     0.007642940421150
     0.016567423494853     0.007642940421150    -0.002367310639337
1 35
    -0.028750525305578     0.000000000000000     0.054215998233916
    -0.000000000000000     0.007718506934118    -0.000000000000000
     0.054215998233916     0.000000000000000    -0.028750525305578
1 36
    -0.026708400921512    -0.016567423494853     0.016567423494853
    -0.016567423494853    -0.002367310639337     0.007642940421150
     0.016567423494853     0.007642940421150    -0.002367310639337
1 37
    -0.002367310639337    -0.016567423494853     0.007642940421150
    -0.016567423494853    -0.026708400921512     0.016567423494853
     0.007642940421150     0.016567423494853    -0.002367310639337
1 38
    -0.002367310639337    -0.007642940421150     0.016567423494853
    -0.007642940421150    -0.002367310639337     0.016567423494853
     0.016567423494853     0.016567423494853    -0.026708400921512
1 39
    -0.039372153042477    -0.000000000000000     0.053106017364148
    -0.000000000000000     0.006699566062428    -0.000000000000000
     0.053106017364148     0.000000000000000    -0.039372153042477
1 40
    -0.039372153042477    -0.053106017364148    -0.000000000000000
    -0.053106017364148    -0.039372153042477    -0.000000000000000
    -0.000000000000000    -0.000000000000000     0.006699566062428
1 41
     0.007718506934118     0.000000000000000     0.000000000000000
     0.000000000000000    -0.028750525305578     0.054215998233916
    -0.000000000000000     0.054215998233916    -0.028750525305578
1 42
     0.006699566062428     0.000000000000000    -0.000000000000000
     0.000000000000000    -0.039372153042477     0.053106017364148
    -0.000000000000000     0.053106017364148    -0.039372153042477
1 43
    -0.152179549495596     0.000000000000000    -0.000000000000000
     0.000000000000000    -0.152179549495596    -0.000000000000000
     0.000000000000000    -0.000000000000000    -0.152179549495596
1 44
     0.006699566062428     0.000000000000000    -0.000000000000000
     0.000000000000000    -0.039372153042477     0.053106017364148
    -0.000000000000000     0.053106017364148    -0.039372153042477
1 45
    -0.002367310639337    -0.016567423494853     0.007642940421150
    -0.016567423494853    -0.026708400921512     0.016567423494853
     0.007642940421150     0.016567423494853    -0.002367310639337
1 46
    -0.039372153042477    -0.053106017364148    -0.000000000000000
    -0.053106017364148    -0.039372153042477    -0.000000000000000
    -0.000000000000000    -0.000000000000000     0.006699566062428
1 47
    -0.039372153042477    -0.000000000000000     0.053106017364148
    -0.000000000000000     0.006699566062428    -0.000000000000000
     0.053106017364148     0.000000000000000    -0.039372153042477
1 48
    -0.002367310639337    -0.007642940421150     0.016567423494853
    -0.007642940421150    -0.002367310639337     0.016567423494853
     0.016567423494853     0.016567423494853    -0.026708400921512
1 49
    -0.009155889292118    -0.388188541395961    -0.000000000000000
    -0.388188541395961    -0.009155889292118    -0.000000000000000
    -0.000000000000000    -0.000000000000000     0.028233088869902
1 50
    -0.009155889292118    -0.000000000000000     0.388188541395961
    -0.000000000000000     0.028233088869902    -0.000000000000000
     0.388188541395961     0.000000000000000    -0.009155889292118
1 51
    -0.002367310639337     0.007642940421150     0.016567423494853
     0.007642940421150    -0.002367310639337    -0.016567423494853
     0.016567423494853    -0.016567423494853    -0.026708400921512
1 52
    -0.002367310639337    -0.016567423494853    -0.007642940421150
    -0.016567423494853    -0.026708400921512    -0.016567423494853
    -0.007642940421150    -0.016567423494853    -0.002367310639337
1 53
     0.028233088869902     0.000000000000000    -0.000000000000000
     0.000000000000000    -0.009155889292118     0.388188541395961
    -0.000000000000000     0.388188541395961    -0.009155889292118
1 54
    -0.042412535424884    -0.000000000000000     0.000000000000000
    -0.000000000000000    -0.042412535424884    -0.000000000000000
     0.000000000000000    -0.000000000000000    -0.593605099786920
1 55
     0.006699566062428     0.000000000000000     0.000000000000000
     0.000000000000000    -0.039372153042477    -0.053106017364148
     0.000000000000000    -0.053106017364148    -0.039372153042477
1 56
    -0.042412535424884    -0.000000000000000    -0.000000000000000
    -0.000000000000000    -0.593605099786920    -0.000000000000000
     0.000000000000000    -0.000000000000000    -0.042412535424884
1 57
    -0.002367310639337     0.007642940421150    -0.016567423494853
     0.007642940421150    -0.002367310639337     0.016567423494853
    -0.016567423494853     0.016567423494853    -0.026708400921512
1 58
    -0.039372153042477    -0.000000000000000    -0.053106017364148
    -0.000000000000000     0.006699566062428    -0.000000000000000
    -0.053106017364148    -0.000000000000000    -0.039372153042477
1 59
    -0.039372153042477     0.053106017364148    -0.000000000000000
     0.053106017364148    -0.039372153042477    -0.000000000000000
    -0.000000000000000    -0.000000000000000     0.006699566062428
1 60
    -0.002367310639337     0.016567423494853    -0.007642940421150
     0.016567423494853    -0.026708400921512     0.016567423494853
    -0.007642940421150     0.016567423494853    -0.002367310639337
1 61
    -0.026708400921512    -0.016567423494853    -0.016567423494853
    -0.016567423494853    -0.002367310639337    -0.007642940421150
    -0.016567423494853    -0.007642940421150    -0.002367310639337
1 62
    -0.593605099786920     0.000000000000000    -0.000000000000000
     0.000000000000000    -0.042412535424884    -0.000000000000000
    -0.000000000000000    -0.000000000000000    -0.042412535424884
1 63
    -0.026708400921512     0.016567423494853     0.016567423494853
     0.016567423494853    -0.002367310639337    -0.007642940421150
     0.016567423494853    -0.007642940421150    -0.002367310639337
1 64
    -0.012647582577617     0.000000000000000     0.000000000000000
    -0.000000000000000    -0.012647582577617    -0.000000000000000
     0.000000000000000    -0.000000000000000    -0.012647582577617
1 65
     0.001556005044816     0.028197120336681     0.028197120336681
     0.028197120336681     0.001556005044816     0.028197120336681
     0.028197120336681     0.028197120336681     0.001556005044816
1 66
     0.002705053564244    -0.000000000000000    -0.000000000000000
    -0.000000000000000     0.013517600132063     0.011848281225562
     0.000000000000000     0.011848281225562     0.013517600132063
1 67
     0.001556005044816    -0.028197120336681    -0.028197120336681
    -0.028197120336681     0.001556005044816     0.028197120336681
    -0.028197120336681     0.028197120336681     0.001556005044816
1 68
    -0.794125446426889     0.000000000000000    -0.000000000000000
     0.000000000000000    -0.092833911408823    -0.000000000000000
    -0.000000000000000    -0.000000000000000    -0.092833911408823
1 69
     0.013517600132063     0.000000000000000     0.011848281225562
    -0.000000000000000     0.002705053564244    -0.000000000000000
     0.011848281225562    -0.000000000000000     0.013517600132063
1 70
     0.013517600132063    -0.011848281225562    -0.000000000000000
    -0.011848281225562     0.013517600132063    -0.000000000000000
     0.000000000000000    -0.000000000000000     0.002705053564244
1 71
     0.047616410441222    -0.062746357665455    -0.000000000000000
    -0.095242598843402     0.015358110695144     0.000000000000000
    -0.000000000000000     0.000000000000000    -0.001722141992765
1 72
     0.047616410441222    -0.000000000000000     0.062746357665455
     0.000000000000000    -0.001722141992765    -0.000000000000000
     0.095242598843402    -0.000000000000000     0.015358110695144
1 73
     0.001556005044816    -0.028197120336681     0.028197120336681
    -0.028197120336681     0.001556005044816    -0.028197120336681
     0.028197120336681    -0.028197120336681     0.001556005044816
1 74
     0.015358110695144    -0.095242598843402     0.000000000000000
    -0.062746357665455     0.047616410441222    -0.000000000000000
    -0.000000000000000     0.000000000000000    -0.001722141992765
1 75
     0.015320015317308    -0.006558857337243     0.006558857337243
    -0.006558857337243     0.015320015317308     0.006558857337243
     0.006558857337243     0.006558857337243     0.015320015317308
1 76
     0.015358110695144     0.000000000000000     0.095242598843402
    -0.000000000000000    -0.001722141992765    -0.000000000000000
     0.062746357665455     0.000000000000000     0.047616410441222
1 77
    -0.092833911408823     0.000000000000000     0.000000000000000
    -0.000000000000000    -0.794125446426890    -0.000000000000000
     0.000000000000000    -0.000000000000000    -0.092833911408823
1 78
    -0.001722141992765    -0.000000000000000     0.000000000000000
     0.000000000000000     0.047616410441222     0.062746357665455
     0.000000000000000     0.095242598843402     0.015358110695144
1 79
    -0.001722141992765     0.000000000000000     0.000000000000000
    -0.000000000000000     0.015358110695144     0.095242598843402
    -0.000000000000000     0.062746357665455     0.047616410441222
1 80
    -0.092833911408823     0.000000000000000    -0.000000000000000
     0.000000000000000    -0.092833911408823    -0.000000000000000
    -0.000000000000000    -0.000000000000000    -0.794125446426889
1 81
     0.013517600132063     0.011848281225562     0.000000000000000
     0.011848281225562     0.013517600132063    -0.000000000000000
     0.000000000000000     0.000000000000000     0.002705053564244
1 82
     0.013517600132063     0.000000000000000    -0.011848281225562
     0.000000000000000     0.002705053564244    -0.000000000000000
    -0.011848281225562     0.000000000000000     0.013517600132063
1 83
     0.047616410441222    -0.000000000000000    -0.062746357665455
     0.000000000000000    -0.001722141992765    -0.000000000000000
    -0.095242598843402     0.000000000000000     0.015358110695144
1 84
     0.047616410441222     0.062746357665455     0.000000000000000
     0.095242598843402     0.015358110695144     0.000000000000000
     0.000000000000000     0.000000000000000    -0.001722141992765
1 85
     0.002705053564244    -0.000000000000000     0.000000000000000
     0.000000000000000     0.013517600132063    -0.011848281225562
    -0.000000000000000    -0.011848281225562     0.013517600132063
1 86
     0.015320015317308    -0.006558857337243    -0.006558857337243
    -0.006558857337243     0.015320015317308    -0.006558857337243
    -0.006558857337243    -0.006558857337243     0.015320015317308
1 87
     0.256153690698328    -0.000000000000000     0.000000000000000
    -0.000000000000000     0.044935945410439    -0.000000000000000
    -0.000000000000000     0.000000000000000     0.044935945410439
1 88
     0.015320015317308     0.006558857337243     0.006558857337243
     0.006558857337243     0.015320015317308    -0.006558857337243
     0.006558857337243    -0.006558857337243     0.015320015317308
1 89
    -0.001722141992765    -0.000000000000000     0.000000000000000
     0.000000000000000     0.047616410441222    -0.062746357665455
    -0.000000000000000    -0.095242598843402     0.015358110695144
1 90
     0.044935945410439     0.000000000000000     0.000000000000000
     0.000000000000000     0.256153690698328    -0.000000000000000
     0.000000000000000     0.000000000000000     0.044935945410439
1 91
     0.044935945410439     0.000000000000000     0.000000000000000
    -0.000000000000000     0.044935945410439    -0.000000000000000
     0.000000000000000     0.000000000000000     0.256153690698328
1 92
    -0.001722141992765     0.000000000000000    -0.000000000000000
    -0.000000000000000     0.015358110695144    -0.095242598843402
     0.000000000000000    -0.062746357665455     0.047616410441222
1 93
     0.015358110695144     0.095242598843402     0.000000000000000
     0.062746357665455     0.047616410441222     0.000000000000000
     0.000000000000000     0.000000000000000    -0.001722141992765
1 94
     0.015320015317308     0.006558857337243    -0.006558857337243
     0.006558857337243     0.015320015317308     0.006558857337243
    -0.006558857337243     0.006558857337243     0.015320015317308
1 95
     0.015358110695144     0.000000000000000    -0.095242598843402
    -0.000000000000000    -0.001722141992765     0.000000000000000
    -0.062746357665455    -0.000000000000000     0.047616410441222
1 96
     0.001556005044816     0.028197120336681    -0.028197120336681
     0.028197120336681     0.001556005044816    -0.028197120336681
    -0.028197120336681    -0.028197120336681     0.001556005044816
1 97
     0.001556005044816     0.028197120336681    -0.028197120336681
     0.028197120336681     0.001556005044816    -0.028197120336681
    -0.028197120336681    -0.028197120336681     0.001556005044816
1 98
     0.015358110695144     0.000000000000000    -0.095242598843402
     0.000000000000000    -0.001722141992765     0.000000000000000
    -0.062746357665455    -0.000000000000000     0.047616410441222
1 99
     0.015320015317308     0.006558857337243    -0.006558857337243
     0.006558857337243     0.015320015317308     0.006558857337243
    -0.006558857337243     0.006558857337243     0.015320015317308
1 100
     0.015358110695144     0.095242598843402     0.000000000000000
     0.062746357665455     0.047616410441222     0.000000000000000
     0.000000000000000     0.000000000000000    -0.001722141992765
1 101
    -0.001722141992765     0.000000000000000    -0.000000000000000
    -0.000000000000000     0.015358110695144    -0.095242598843402
     0.000000000000000    -0.062746357665455     0.047616410441222
1 102
     0.044935945410439     0.000000000000000     0.000000000000000
    -0.000000000000000     0.044935945410439    -0.000000000000000
     0.000000000000000     0.000000000000000     0.256153690698328
1 103
     0.044935945410439    -0.000000000000000     0.000000000000000
     0.000000000000000     0.256153690698328     0.000000000000000
     0.000000000000000     0.000000000000000     0.044935945410439
1 104
    -0.001722141992765    -0.000000000000000     0.000000000000000
     0.000000000000000     0.047616410441222    -0.062746357665455
    -0.000000000000000    -0.095242598843402     0.015358110695144
1 105
     0.015320015317308     0.006558857337243     0.006558857337243
     0.006558857337243     0.015320015317308    -0.006558857337243
     0.006558857337243    -0.006558857337243     0.015320015317308
1 106
     0.256153690698328    -0.000000000000000     0.000000000000000
    -0.000000000000000     0.044935945410439    -0.000000000000000
    -0.000000000000000     0.000000000000000     0.044935945410439
1 107
     0.015320015317308    -0.006558857337243    -0.006558857337243
    -0.006558857337243     0.015320015317308    -0.006558857337243
    -0.006558857337243    -0.006558857337243     0.015320015317308
1 108
     0.002705053564244    -0.000000000000000     0.000000000000000
     0.000000000000000     0.013517600132063    -0.011848281225562
    -0.000000000000000    -0.011848281225562     0.013517600132063
1 109
     0.047616410441222     0.062746357665455     0.000000000000000
     0.095242598843402     0.015358110695144     0.000000000000000
     0.000000000000000     0.000000000000000    -0.001722141992765
1 110
     0.047616410441222    -0.000000000000000    -0.062746357665455
     0.000000000000000    -0.001722141992765    -0.000000000000000
    -0.095242598843402     0.000000000000000     0.015358110695144
1 111
     0.013517600132063     0.000000000000000    -0.011848281225562
    -0.000000000000000     0.002705053564244    -0.000000000000000
    -0.011848281225562     0.000000000000000     0.013517600132063
1 112
     0.013517600132063     0.011848281225562     0.000000000000000
     0.011848281225562     0.013517600132063    -0.000000000000000
     0.000000000000000     0.000000000000000     0.002705053564244
1 113
    -0.092833911408823     0.000000000000000    -0.000000000000000
     0.000000000000000    -0.092833911408823    -0.000000000000000
    -0.000000000000000    -0.000000000000000    -0.794125446426889
1 114
    -0.001722141992765     0.000000000000000     0.000000000000000
    -0.000000000000000     0.015358110695144     0.095242598843402
    -0.000000000000000     0.062746357665455     0.047616410441222
1 115
    -0.001722141992765    -0.000000000000000     0.000000000000000
     0.000000000000000     0.047616410441222     0.062746357665455
     0.000000000000000     0.095242598843402     0.015358110695144
1 116
    -0.092833911408823     0.000000000000000     0.000000000000000
    -0.000000000000000    -0.794125446426890    -0.000000000000000
     0.000000000000000    -0.000000000000000    -0.092833911408823
1 117
     0.015358110695144     0.000000000000000     0.095242598843402
    -0.000000000000000    -0.001722141992765    -0.000000000000000
     0.062746357665455     0.000000000000000     0.047616410441222
1 118
     0.015320015317308    -0.006558857337243     0.006558857337243
    -0.006558857337243     0.015320015317308     0.006558857337243
     0.006558857337243     0.006558857337243     0.015320015317308
1 119
     0.015358110695144    -0.095242598843402     0.000000000000000
    -0.062746357665455     0.047616410441222    -0.000000000000000
    -0.000000000000000     0.000000000000000    -0.001722141992765
1 120
     0.001556005044816    -0.028197120336681     0.028197120336681
    -0.028197120336681     0.001556005044816    -0.028197120336681
     0.028197120336681    -0.028197120336681     0.001556005044816
1 121
     0.047616410441222    -0.000000000000000     0.062746357665455
     0.000000000000000    -0.001722141992765    -0.000000000000000
     0.095242598843402    -0.000000000000000     0.015358110695144
1 122
     0.047616410441222    -0.062746357665455    -0.000000000000000
    -0.095242598843402     0.015358110695144     0.000000000000000
    -0.000000000000000     0.000000000000000    -0.001722141992765
1 123
     0.013517600132063    -0.011848281225562    -0.000000000000000
    -0.011848281225562     0.013517600132063    -0.000000000000000
     0.000000000000000    -0.000000000000000     0.002705053564244
1 124
     0.013517600132063     0.000000000000000     0.011848281225562
    -0.000000000000000     0.002705053564244    -0.000000000000000
     0.011848281225562    -0.000000000000000     0.013517600132063
1 125
    -0.794125446426889     0.000000000000000    -0.000000000000000
     0.000000000000000    -0.092833911408823    -0.000000000000000
    -0.000000000000000    -0.000000000000000    -0.092833911408823
1 126
     0.001556005044816    -0.028197120336681    -0.028197120336681
    -0.028197120336681     0.001556005044816     0.028197120336681
    -0.028197120336681     0.028197120336681     0.001556005044816
1 127
     0.002705053564244    -0.000000000000000    -0.000000000000000
     0.000000000000000     0.013517600132063     0.011848281225562
     0.000000000000000     0.011848281225562     0.013517600132063
1 128
     0.001556005044816     0.028197120336681     0.028197120336681
     0.028197120336681     0.001556005044816     0.028197120336681
     0.028197120336681     0.028197120336681     0.001556005044816
2 1
     0.028233088869902     0.000000000000000     0.000000000000000
     0.000000000000000    -0.009155889292118    -0.388188541395961
     0.000000000000000    -0.388188541395961    -0.009155889292118
2 2
     2.657485203918583     0.000000000000000    -0.000000000000000
     0.000000000000000     2.657485203918583    -0.000000000000000
    -0.000000000000000    -0.000000000000000     2.657485203918580
2 3
     0.028233088869902     0.000000000000000     0.000000000000000
     0.000000000000000    -0.009155889292118    -0.388188541395961
     0.000000000000000    -0.388188541395961    -0.009155889292118
2 4
     0.007718506934118     0.000000000000000     0.000000000000000
     0.000000000000000    -0.028750525305578    -0.054215998233916
     0.000000000000000    -0.054215998233916    -0.028750525305578
2 5
    -0.009155889292118     0.388188541395961    -0.000000000000000
     0.388188541395961    -0.009155889292118    -0.000000000000000
    -0.000000000000000    -0.000000000000000     0.028233088869902
2 6
    -0.009155889292118     0.000000000000000    -0.388188541395961
     0.000000000000000     0.028233088869902     0.000000000000000
    -0.388188541395961     0.000000000000000    -0.009155889292118
2 7
    -0.002367310639337    -0.007642940421150    -0.016567423494853
    -0.007642940421150    -0.002367310639337    -0.016567423494853
    -0.016567423494853    -0.016567423494853    -0.026708400921512
2 8
    -0.002367310639337     0.016567423494853     0.007642940421150
     0.016567423494853    -0.026708400921512    -0.016567423494853
     0.007642940421150    -0.016567423494853    -0.002367310639337
2 9
    -0.026708400921512     0.016567423494853    -0.016567423494853
     0.016567423494853    -0.002367310639337     0.007642940421150
    -0.016567423494853     0.007642940421150    -0.002367310639337
2 10
    -0.028750525305578    -0.000000000000000    -0.054215998233916
     0.000000000000000     0.007718506934118    -0.000000000000000
    -0.054215998233916     0.000000000000000    -0.028750525305578
2 11
    -0.026708400921512     0.016567423494853    -0.016567423494853
     0.016567423494853    -0.002367310639337     0.007642940421150
    -0.016567423494853     0.007642940421150    -0.002367310639337
2 12
    -0.028750525305578     0.054215998233916     0.000000000000000
     0.054215998233916    -0.028750525305578    -0.000000000000000
     0.000000000000000     0.000000000000000     0.007718506934118
2 13
    -0.002367310639337    -0.007642940421150    -0.016567423494853
    -0.007642940421150    -0.002367310639337    -0.016567423494853
    -0.016567423494853    -0.016567423494853    -0.026708400921512
2 14
    -0.009155889292118    -0.000000000000000    -0.388188541395961
     0.000000000000000     0.028233088869902    -0.000000000000000
    -0.388188541395961    -0.000000000000000    -0.009155889292118
2 15
    -0.009155889292118     0.388188541395961    -0.000000000000000
     0.388188541395961    -0.009155889292118     0.000000000000000
    -0.000000000000000     0.000000000000000     0.028233088869902
2 16
    -0.002367310639337     0.016567423494853     0.007642940421150
     0.016567423494853    -0.026708400921512    -0.016567423494853
     0.007642940421150    -0.016567423494853    -0.002367310639337
2 17
    -0.009155889292118    -0.000000000000000     0.388188541395961
    -0.000000000000000     0.028233088869902    -0.000000000000000
     0.388188541395961    -0.000000000000000    -0.009155889292118
2 18
    -0.009155889292118    -0.388188541395961     0.000000000000000