   2   2   0   0
  0.2258959E+02  0.3997770E-09  0.3997770E-09  0.3997770E-09  0.5000000E-15
  1.000000000000000E-004
  CAR 
 unknown system                          
     15.02891714    -11.14429452  301      2.99196616      1.00000000
    -11.144  0.0000E+00  0.0000E+00
    -11.057  0.0000E+00  0.0000E+00
    -10.970  0.0000E+00  0.0000E+00
    -10.883  0.0000E+00  0.0000E+00
    -10.795  0.0000E+00  0.0000E+00
    -10.708  0.0000E+00  0.0000E+00
    -10.621  0.0000E+00  0.0000E+00
    -10.534  0.0000E+00  0.0000E+00
    -10.446  0.0000E+00  0.0000E+00
    -10.359  0.0000E+00  0.0000E+00
    -10.272  0.0000E+00  0.0000E+00
    -10.185  0.1733E-11  0.1512E-12
    -10.097  0.1207E-05  0.1053E-06
    -10.010  0.2603E-02  0.2272E-03
     -9.923  0.3392E-01  0.3186E-02
     -9.836  0.3833E-01  0.6530E-02
     -9.748  0.3591E+00  0.3786E-01
     -9.661  0.2307E+00  0.5799E-01
     -9.574  0.3251E-01  0.6082E-01
     -9.487  0.3978E+00  0.9553E-01
     -9.399  0.2270E+00  0.1153E+00
     -9.312  0.1020E+01  0.2044E+00
     -9.225  0.2969E+00  0.2303E+00
     -9.138  0.2241E-01  0.2322E+00
     -9.050  0.2208E+00  0.2515E+00
     -8.963  0.7156E+00  0.3139E+00
     -8.876  0.1246E+01  0.4226E+00
     -8.789  0.3815E+00  0.4559E+00
     -8.701  0.9108E+00  0.5353E+00
     -8.614  0.4550E+00  0.5750E+00
     -8.527  0.8573E+00  0.6498E+00
     -8.440  0.2980E+00  0.6758E+00
     -8.352  0.1361E+01  0.7946E+00
     -8.265  0.2435E+01  0.1007E+01
     -8.178  0.1114E+01  0.1104E+01
     -8.091  0.5253E+00  0.1150E+01
     -8.004  0.1869E+01  0.1313E+01
     -7.916  0.1846E+01  0.1474E+01
     -7.829  0.8691E+00  0.1550E+01
     -7.742  0.1285E+01  0.1662E+01
     -7.655  0.2364E+01  0.1868E+01
     -7.567  0.1033E+01  0.1959E+01
     -7.480  0.4660E+00  0.1999E+01
     -7.393  0.9515E-02  0.2000E+01
     -7.306  0.1426E-05  0.2000E+01
     -7.218  0.7597E-12  0.2000E+01
     -7.131  0.0000E+00  0.2000E+01
     -7.044  0.0000E+00  0.2000E+01
     -6.957  0.0000E+00  0.2000E+01
     -6.869  0.0000E+00  0.2000E+01
     -6.782  0.0000E+00  0.2000E+01
     -6.695  0.0000E+00  0.2000E+01
     -6.608  0.0000E+00  0.2000E+01
     -6.520  0.0000E+00  0.2000E+01
     -6.433  0.0000E+00  0.2000E+01
     -6.346  0.0000E+00  0.2000E+01
     -6.259  0.0000E+00  0.2000E+01
     -6.171  0.0000E+00  0.2000E+01
     -6.084  0.0000E+00  0.2000E+01
     -5.997  0.0000E+00  0.2000E+01
     -5.910  0.0000E+00  0.2000E+01
     -5.822  0.0000E+00  0.2000E+01
     -5.735  0.0000E+00  0.2000E+01
     -5.648  0.0000E+00  0.2000E+01
     -5.561  0.0000E+00  0.2000E+01
     -5.473  0.0000E+00  0.2000E+01
     -5.386  0.0000E+00  0.2000E+01
     -5.299  0.0000E+00  0.2000E+01
     -5.212  0.0000E+00  0.2000E+01
     -5.124  0.0000E+00  0.2000E+01
     -5.037  0.0000E+00  0.2000E+01
     -4.950  0.0000E+00  0.2000E+01
     -4.863  0.0000E+00  0.2000E+01
     -4.775  0.0000E+00  0.2000E+01
     -4.688  0.0000E+00  0.2000E+01
     -4.601  0.0000E+00  0.2000E+01
     -4.514  0.0000E+00  0.2000E+01
     -4.427  0.0000E+00  0.2000E+01
     -4.339  0.0000E+00  0.2000E+01
     -4.252  0.6664E-10  0.2000E+01
     -4.165  0.1810E-04  0.2000E+01
     -4.078  0.1613E-01  0.2001E+01
     -3.990  0.1524E+00  0.2015E+01
     -3.903  0.4777E+00  0.2056E+01
     -3.816  0.9319E+00  0.2138E+01
     -3.729  0.2949E+01  0.2395E+01
     -3.641  0.2695E+01  0.2630E+01
     -3.554  0.1698E+01  0.2778E+01
     -3.467  0.1494E+01  0.2909E+01
     -3.380  0.8966E+00  0.2987E+01
     -3.292  0.3813E+00  0.3020E+01
     -3.205  0.7260E+00  0.3083E+01
     -3.118  0.1544E+01  0.3218E+01
     -3.031  0.1203E+01  0.3323E+01
     -2.943  0.2879E-01  0.3326E+01
     -2.856  0.3683E+00  0.3358E+01
     -2.769  0.1530E+00  0.3371E+01
     -2.682  0.5959E-01  0.3376E+01
     -2.594  0.8163E+00  0.3447E+01
     -2.507  0.7446E+00  0.3512E+01
     -2.420  0.5223E+00  0.3558E+01
     -2.333  0.6910E-02  0.3559E+01
     -2.245  0.2203E-05  0.3559E+01
     -2.158  0.1577E-01  0.3560E+01
     -2.071  0.6437E+00  0.3616E+01
     -1.984  0.4643E+00  0.3657E+01
     -1.896  0.8009E+00  0.3727E+01
     -1.809  0.2239E+00  0.3746E+01
     -1.722  0.5616E-03  0.3746E+01
     -1.635  0.4919E-08  0.3746E+01
     -1.547  0.6921E-06  0.3746E+01
     -1.460  0.5693E-02  0.3747E+01
     -1.373  0.2568E+00  0.3769E+01
     -1.286  0.3420E+00  0.3799E+01
     -1.198  0.2449E-01  0.3801E+01
     -1.111  0.2820E+00  0.3826E+01
     -1.024  0.1101E+01  0.3922E+01
     -0.937  0.8781E+00  0.3998E+01
     -0.849  0.3222E+01  0.4279E+01
     -0.762  0.6402E+00  0.4335E+01
     -0.675  0.7153E-01  0.4341E+01
     -0.588  0.4825E+00  0.4384E+01
     -0.501  0.8334E+00  0.4456E+01
     -0.413  0.1829E+01  0.4616E+01
     -0.326  0.2315E+01  0.4818E+01
     -0.239  0.3126E+01  0.5090E+01
     -0.152  0.2610E+00  0.5113E+01
     -0.064  0.1788E-03  0.5113E+01
      0.023  0.3503E-01  0.5116E+01
      0.110  0.1405E+01  0.5239E+01
      0.197  0.1038E+01  0.5329E+01
      0.285  0.1516E+01  0.5462E+01
      0.372  0.2714E+01  0.5699E+01
      0.459  0.2244E+01  0.5894E+01
      0.546  0.1320E+01  0.6010E+01
      0.634  0.1085E+01  0.6104E+01
      0.721  0.1664E+01  0.6249E+01
      0.808  0.2058E+01  0.6429E+01
      0.895  0.8471E+00  0.6503E+01
      0.983  0.9930E+00  0.6590E+01
      1.070  0.3381E+01  0.6885E+01
      1.157  0.4703E+00  0.6926E+01
      1.244  0.6462E-01  0.6931E+01
      1.332  0.1493E+01  0.7062E+01
      1.419  0.1188E+01  0.7165E+01
      1.506  0.1094E+01  0.7261E+01
      1.593  0.2311E+01  0.7462E+01
      1.681  0.1740E+01  0.7614E+01
      1.768  0.5774E+00  0.7664E+01
      1.855  0.1308E+00  0.7676E+01
      1.942  0.5854E-02  0.7676E+01
      2.030  0.5826E+00  0.7727E+01
      2.117  0.1515E+01  0.7859E+01
      2.204  0.2245E+00  0.7879E+01
      2.291  0.5277E-03  0.7879E+01
      2.379  0.2182E-02  0.7879E+01
      2.466  0.2886E+00  0.7904E+01
      2.553  0.8603E+00  0.7979E+01
      2.640  0.1026E+00  0.7988E+01
      2.728  0.3660E-01  0.7991E+01
      2.815  0.9350E-01  0.8000E+01
      2.902  0.4197E-02  0.8000E+01
      2.989  0.9998E-06  0.8000E+01
      3.076  0.7380E-12  0.8000E+01
      3.164  0.7629E-07  0.8000E+01
      3.251  0.6600E-03  0.8000E+01
      3.338  0.2685E-01  0.8002E+01
      3.425  0.1714E-01  0.8004E+01
      3.513  0.1301E-03  0.8004E+01
      3.600  0.1180E-07  0.8004E+01
      3.687  0.3547E-03  0.8004E+01
      3.774  0.6048E-01  0.8009E+01
      3.862  0.1397E+00  0.8021E+01
      3.949  0.2791E+00  0.8046E+01
      4.036  0.5756E-01  0.8051E+01
      4.123  0.1184E-02  0.8051E+01
      4.211  0.2077E+00  0.8069E+01
      4.298  0.5260E+00  0.8115E+01
      4.385  0.2250E+00  0.8135E+01
      4.472  0.8598E+00  0.8210E+01
      4.560  0.5032E+00  0.8253E+01
      4.647  0.1174E-01  0.8254E+01
      4.734  0.3790E+00  0.8288E+01
      4.821  0.6795E+00  0.8347E+01
      4.909  0.2364E+01  0.8553E+01
      4.996  0.1536E+01  0.8687E+01
      5.083  0.1891E+01  0.8852E+01
      5.170  0.1765E+01  0.9006E+01
      5.258  0.8346E+00  0.9079E+01
      5.345  0.1229E+01  0.9186E+01
      5.432  0.1544E+01  0.9321E+01
      5.519  0.1399E+01  0.9443E+01
      5.607  0.5954E+00  0.9495E+01
      5.694  0.4835E-01  0.9499E+01
      5.781  0.1625E+01  0.9641E+01
      5.868  0.3626E+01  0.9957E+01
      5.956  0.1740E+01  0.1011E+02
      6.043  0.9390E+00  0.1019E+02
      6.130  0.1672E+01  0.1034E+02
      6.217  0.1137E+01  0.1044E+02
      6.305  0.1048E+01  0.1053E+02
      6.392  0.5303E+00  0.1057E+02
      6.479  0.2892E-01  0.1058E+02
      6.566  0.1032E+00  0.1059E+02
      6.653  0.9195E-02  0.1059E+02
      6.741  0.5449E-03  0.1059E+02
      6.828  0.2420E+00  0.1061E+02
      6.915  0.1685E+01  0.1075E+02
      7.002  0.3828E+01  0.1109E+02
      7.090  0.1002E+01  0.1118E+02
      7.177  0.7349E+00  0.1124E+02
      7.264  0.8226E-01  0.1125E+02
      7.351  0.1022E+01  0.1134E+02
      7.439  0.2274E+01  0.1153E+02
      7.526  0.5065E+01  0.1198E+02
      7.613  0.1425E+01  0.1210E+02
      7.700  0.1193E-01  0.1210E+02
      7.788  0.1352E+00  0.1211E+02
      7.875  0.8392E+00  0.1219E+02
      7.962  0.1929E+00  0.1220E+02
      8.049  0.1047E+01  0.1229E+02
      8.137  0.1743E+01  0.1245E+02
      8.224  0.2952E+01  0.1270E+02
      8.311  0.3399E+01  0.1300E+02
      8.398  0.2593E+01  0.1323E+02
      8.486  0.7528E+00  0.1329E+02
      8.573  0.1006E+00  0.1330E+02
      8.660  0.1207E+01  0.1341E+02
      8.747  0.1624E+01  0.1355E+02
      8.835  0.3932E+00  0.1358E+02
      8.922  0.9001E+00  0.1366E+02
      9.009  0.1727E+01  0.1381E+02
      9.096  0.2224E+01  0.1401E+02
      9.184  0.2010E+01  0.1418E+02
      9.271  0.1656E+01  0.1433E+02
      9.358  0.2127E+00  0.1434E+02
      9.445  0.4078E+00  0.1438E+02
      9.533  0.3206E-01  0.1438E+02
      9.620  0.4410E-01  0.1439E+02
      9.707  0.1657E+01  0.1453E+02
      9.794  0.1482E+01  0.1466E+02
      9.882  0.4422E-01  0.1466E+02
      9.969  0.4344E+00  0.1470E+02
     10.056  0.6414E+00  0.1476E+02
     10.143  0.6891E+00  0.1482E+02
     10.230  0.5684E+00  0.1487E+02
     10.318  0.8683E-01  0.1488E+02
     10.405  0.2729E+00  0.1490E+02
     10.492  0.2202E+01  0.1509E+02
     10.579  0.2761E+01  0.1533E+02
     10.667  0.2591E+01  0.1556E+02
     10.754  0.7186E+00  0.1562E+02
     10.841  0.6660E+00  0.1568E+02
     10.928  0.5486E+00  0.1573E+02
     11.016  0.5597E+00  0.1578E+02
     11.103  0.1328E+01  0.1589E+02
     11.190  0.1115E+01  0.1599E+02
     11.277  0.2190E+01  0.1618E+02
     11.365  0.2192E+01  0.1637E+02
     11.452  0.1519E+01  0.1650E+02
     11.539  0.1673E+01  0.1665E+02
     11.626  0.2096E+00  0.1667E+02
     11.714  0.3461E+00  0.1670E+02
     11.801  0.1325E+01  0.1681E+02
     11.888  0.1188E+00  0.1682E+02
     11.975  0.1354E-01  0.1683E+02
     12.063  0.6213E+00  0.1688E+02
     12.150  0.6437E+00  0.1694E+02
     12.237  0.2230E+01  0.1713E+02
     12.324  0.3108E+01  0.1740E+02
     12.412  0.1164E+01  0.1750E+02
     12.499  0.9028E+00  0.1758E+02
     12.586  0.1813E+00  0.1760E+02
     12.673  0.1555E-02  0.1760E+02
     12.761  0.2995E+00  0.1762E+02
     12.848  0.7423E+00  0.1769E+02
     12.935  0.1150E+00  0.1770E+02
     13.022  0.1789E+00  0.1771E+02
     13.110  0.1581E+00  0.1773E+02
     13.197  0.9661E+00  0.1781E+02
     13.284  0.1357E+00  0.1782E+02
     13.371  0.2533E-03  0.1782E+02
     13.459  0.8028E-01  0.1783E+02
     13.546  0.8305E+00  0.1790E+02
     13.633  0.1635E+00  0.1792E+02
     13.720  0.5303E-01  0.1792E+02
     13.808  0.5479E+00  0.1797E+02
     13.895  0.3236E+00  0.1800E+02
     13.982  0.1591E-01  0.1800E+02
     14.069  0.7245E-05  0.1800E+02
     14.156  0.1040E-10  0.1800E+02
     14.244  0.0000E+00  0.1800E+02
     14.331  0.0000E+00  0.1800E+02
     14.418  0.0000E+00  0.1800E+02
     14.505  0.0000E+00  0.1800E+02
     14.593  0.0000E+00  0.1800E+02
     14.680  0.0000E+00  0.1800E+02
     14.767  0.0000E+00  0.1800E+02
     14.854  0.0000E+00  0.1800E+02
     14.942  0.0000E+00  0.1800E+02
     15.029  0.0000E+00  0.1800E+02
