    2    2    1    1
  0.2258959E+02  0.3997770E-09  0.3997770E-09  0.3997770E-09  0.5000000E-15
  1.000000000000000E-004
  CAR 
 unknown system                          
      8   2622      9
 
  0.0000000E+00  0.0000000E+00  0.0000000E+00  0.1953125E-02
    1       -9.954603   1.000000
    2        2.748892   1.000000
    3        2.748892   1.000000
    4        2.748898   1.000000
    5        3.327938   0.000000
    6        6.513668   0.000000
    7        6.513668   0.000000
    8        6.513669   0.000000
    9       10.366099   0.000000
 
  0.1250000E+00  0.0000000E+00  0.0000000E+00  0.1562500E-01
    1       -9.786651   1.000000
    2        0.796467   1.000000
    3        2.513982   1.000000
    4        2.513987   1.000000
    5        4.386636   0.000000
    6        6.861229   0.000000
    7        6.861231   0.000000
    8        6.975281   0.000000
    9       11.303005   0.000000
 
  0.2500000E+00  0.0000000E+00  0.0000000E+00  0.1562500E-01
    1       -9.312843   1.000000
    2       -1.384157   1.000000
    3        2.074359   1.000000
    4        2.074364   1.000000
    5        4.242583   0.000000
    6        7.377076   0.000000
    7        7.377078   0.000000
    8        8.735677   0.000000
    9       11.723663   0.000000
 
  0.3750000E+00  0.0000000E+00  0.0000000E+00  0.1562500E-01
    1       -8.674834   1.000000
    2       -3.119731   1.000000
    3        1.735861   1.000000
    4        1.735865   1.000000
    5        3.913904   0.000000
    6        7.462505   0.000000
    7        7.462507   0.000000
    8       10.404245   0.000000
    9       11.750024   0.000000
 
  0.5000000E+00  0.0000000E+00  0.0000000E+00  0.7812500E-02
    1       -8.313743   1.000000
    2       -3.856667   1.000000
    3        1.614391   1.000000
    4        1.614395   1.000000
    5        3.789059   0.000000
    6        7.410489   0.000000
    7        7.410492   0.000000
    8       10.506507   0.000000
    9       13.171839   0.000000
 
  0.1250000E+00  0.1250000E+00  0.0000000E+00  0.1171875E-01
    1       -9.730006   1.000000
    2        0.770980   1.000000
    3        2.092688   1.000000
    4        2.092692   1.000000
    5        5.146324   0.000000
    6        5.876401   0.000000
    7        7.474485   0.000000
    8        7.474487   0.000000
    9       10.782093   0.000000
 
  0.2500000E+00  0.1250000E+00  0.0000000E+00  0.4687500E-01
    1       -9.354711   1.000000
    2       -0.876218   1.000000
    3        1.586082   1.000000
    4        1.605412   1.000000
    5        5.316708   0.000000
    6        6.215516   0.000000
    7        8.214124   0.000000
    8        8.310174   0.000000
    9       10.625829   0.000000
 
  0.3750000E+00  0.1250000E+00  0.0000000E+00  0.4687500E-01
    1       -8.752737   1.000000
    2       -2.625077   1.000000
    3        0.989027   1.000000
    4        1.315924   1.000000
    5        5.037429   0.000000
    6        6.940408   0.000000
    7        8.351765   0.000000
    8        8.975754   0.000000
    9       12.054588   0.000000
 
  0.5000000E+00  0.1250000E+00  0.0000000E+00  0.4687500E-01
    1       -8.239886   1.000000
    2       -3.702933   1.000000
    3        0.558916   1.000000
    4        1.307750   1.000000
    5        4.853028   0.000000
    6        7.109257   0.000000
    7        8.081756   0.000000
    8       10.500902   0.000000
    9       12.360609   0.000000
 
 -0.3750000E+00  0.1250000E+00  0.0000000E+00  0.4687500E-01
    1       -8.368533   1.000000
    2       -3.454423   1.000000
    3        0.421033   1.000000
    4        1.574065   1.000000
    5        4.887763   0.000000
    6        7.322936   0.000000
    7        7.828164   0.000000
    8       10.521523   0.000000
    9       12.464966   0.000000
 
 -0.2500000E+00  0.1250000E+00  0.0000000E+00  0.4687500E-01
    1       -8.970981   1.000000
    2       -2.081129   1.000000
    3        0.649471   1.000000
    4        2.033064   1.000000
    5        5.100898   0.000000
    6        7.521383   0.000000
    7        7.524081   0.000000
    8        8.899661   0.000000
    9       11.066799   0.000000
 
 -0.1250000E+00  0.1250000E+00  0.0000000E+00  0.2343750E-01
    1       -9.514885   1.000000
    2       -0.381861   1.000000
    3        1.388957   1.000000
    4        2.472369   1.000000
    5        5.086925   0.000000
    6        6.855787   0.000000
    7        6.987891   0.000000
    8        8.175594   0.000000
    9       11.016662   0.000000
 
  0.2500000E+00  0.2500000E+00  0.0000000E+00  0.1171875E-01
    1       -9.086631   1.000000
    2       -1.335545   1.000000
    3        1.063634   1.000000
    4        1.063637   1.000000
    5        4.753794   0.000000
    6        6.046808   0.000000
    7        9.390234   0.000000
    8        9.390235   0.000000
    9       10.211037   0.000000
 
  0.3750000E+00  0.2500000E+00  0.0000000E+00  0.4687500E-01
    1       -8.570159   1.000000
    2       -2.507839   1.000000
    3        0.339874   1.000000
    4        0.735582   1.000000
    5        4.885647   0.000000
    6        6.099852   0.000000
    7        9.209104   0.000000
    8        9.977017   0.000000
    9       12.265444   0.000000
 
  0.5000000E+00  0.2500000E+00  0.0000000E+00  0.4687500E-01
    1       -8.027366   1.000000
    2       -3.495062   1.000000
    3       -0.480719   1.000000
    4        0.718799   1.000000
    5        4.973032   0.000000
    6        7.480842   0.000000
    7        9.009196   0.000000
    8        9.729636   0.000000
    9       13.148594   0.000000
 
 -0.3750000E+00  0.2500000E+00  0.0000000E+00  0.4687500E-01
    1       -7.944208   1.000000
    2       -3.615262   1.000000
    3       -0.896315   1.000000
    4        1.014356   1.000000
    5        5.182627   0.000000
    6        8.227829   0.000000
    7        9.217839   0.000000
    8       10.130673   0.000000
    9       11.332711   0.000000
 
 -0.2500000E+00  0.2500000E+00  0.0000000E+00  0.2343750E-01
    1       -8.420108   1.000000
    2       -2.876093   1.000000
    3       -0.610409   1.000000
    4        1.535254   1.000000
    5        5.513403   0.000000
    6        8.390802   0.000000
    7        8.436595   0.000000
    8        8.620080   0.000000
    9       11.144964   0.000000
 
  0.3750000E+00  0.3750000E+00  0.0000000E+00  0.1171875E-01
    1       -8.172501   1.000000
    2       -3.149723   1.000000
    3        0.338613   1.000000
    4        0.338616   1.000000
    5        4.226447   0.000000
    6        5.061670   0.000000
    7       11.514234   0.000000
    8       11.514235   0.000000
    9       12.158756   0.000000
 
  0.5000000E+00  0.3750000E+00  0.0000000E+00  0.4687500E-01
    1       -7.743997   1.000000
    2       -3.769629   1.000000
    3       -0.355094   1.000000
    4        0.254010   1.000000
    5        4.468686   0.000000
    6        5.437772   0.000000
    7       11.267035   0.000000
    8       11.751391   0.000000
    9       13.509480   0.000000
 
 -0.3750000E+00  0.3750000E+00  0.0000000E+00  0.2343750E-01
    1       -7.636975   1.000000
    2       -3.840669   1.000000
    3       -1.104971   1.000000
    4        0.501530   1.000000
    5        4.727717   0.000000
    6        7.410983   0.000000
    7       10.733871   0.000000
    8       10.833616   0.000000
    9       11.434197   0.000000
 
  0.5000000E+00  0.5000000E+00  0.0000000E+00  0.5859375E-02
    1       -7.593080   1.000000
    2       -4.035971   1.000000
    3        0.084923   1.000000
    4        0.084926   1.000000
    5        4.218672   0.000000
    6        4.427085   0.000000
    7       12.952546   0.000000
    8       12.952547   0.000000
    9       13.749839   0.000000
 
  0.3750000E+00  0.2500000E+00  0.1250000E+00  0.4687500E-01
    1       -8.906028   1.000000
    2       -1.925079   1.000000
    3        0.356931   1.000000
    4        1.454762   1.000000
    5        5.826695   0.000000
    6        6.303989   0.000000
    7        8.125746   0.000000
    8        9.110109   0.000000
    9       11.229402   0.000000
 
  0.5000000E+00  0.2500000E+00  0.1250000E+00  0.9375000E-01
    1       -8.311740   1.000000
    2       -3.121105   1.000000
    3       -0.297332   1.000000
    4        1.019651   1.000000
    5        5.868382   0.000000
    6        6.968399   0.000000
    7        8.301483   0.000000
    8        9.692365   0.000000
    9       12.278680   0.000000
 
 -0.3750000E+00  0.2500000E+00  0.1250000E+00  0.4687500E-01
    1       -7.983137   1.000000
    2       -3.701603   1.000000
    3       -0.471770   1.000000
    4        0.818287   1.000000
    5        5.812812   0.000000
    6        6.934023   0.000000
    7        9.117208   0.000000
    8       10.465531   0.000000
    9       11.280666   0.000000
 
  0.5000000E+00  0.3750000E+00  0.1250000E+00  0.4687500E-01
    1       -8.069537   1.000000
    2       -3.277668   1.000000
    3       -0.285915   1.000000
    4        0.280387   1.000000
    5        5.414621   0.000000
    6        5.973776   0.000000
    7        9.057764   0.000000
    8       11.430593   0.000000
    9       12.781197   0.000000
 
 -0.3750000E+00  0.3750000E+00  0.1250000E+00  0.9375000E-01
    1       -7.701026   1.000000
    2       -3.743934   1.000000
    3       -0.909271   1.000000
    4        0.103525   1.000000
    5        5.769938   0.000000
    6        7.482684   0.000000
    7        8.672205   0.000000
    8       10.614913   0.000000
    9       12.209388   0.000000
 
 -0.2500000E+00  0.3750000E+00  0.1250000E+00  0.4687500E-01
    1       -7.834977   1.000000
    2       -3.578055   1.000000
    3       -1.052935   1.000000
    4        0.444170   1.000000
    5        6.115645   0.000000
    6        8.010379   0.000000
    7        8.207860   0.000000
    8       10.492503   0.000000
    9       11.487538   0.000000
 
 -0.3750000E+00  0.5000000E+00  0.1250000E+00  0.2343750E-01
    1       -7.571341   1.000000
    2       -3.942495   1.000000
    3       -0.389823   1.000000
    4       -0.282722   1.000000
    5        5.320329   0.000000
    6        5.535541   0.000000
    7       10.920311   0.000000
    8       11.121107   0.000000
    9       13.779167   0.000000
 
 -0.2500000E+00  0.5000000E+00  0.2500000E+00  0.1171875E-01
    1       -7.549187   1.000000
    2       -3.835957   1.000000
    3       -0.792865   1.000000
    4       -0.577056   1.000000
    5        7.408019   0.000000
    6        7.481067   0.000000
    7        8.193649   0.000000
    8        8.811725   0.000000
    9       13.839226   0.000000
 
  0.0000000E+00  0.0000000E+00  0.0000000E+00  0.0000000E+00
    1       -9.954603   1.000000
    2        2.748892   1.000000
    3        2.748892   1.000000
    4        2.748898   1.000000
    5        3.327938   0.000000
    6        6.513668   0.000000
    7        6.513668   0.000000
    8        6.513669   0.000000
    9       10.366099   0.000000
 
  0.6748607E-02  0.6748607E-02  0.0000000E+00  0.0000000E+00
    1       -9.953947   1.000000
    2        2.723950   1.000000
    3        2.746410   1.000000
    4        2.746414   1.000000
    5        3.352760   0.000000
    6        6.510898   0.000000
    7        6.517047   0.000000
    8        6.517048   0.000000
    9       10.370543   0.000000
 
  0.1349721E-01  0.1349721E-01  0.0000000E+00  0.0000000E+00
    1       -9.951968   1.000000
    2        2.658825   1.000000
    3        2.738994   1.000000
    4        2.738998   1.000000
    5        3.417511   0.000000
    6        6.502634   0.000000
    7        6.527153   0.000000
    8        6.527154   0.000000
    9       10.383830   0.000000
 
  0.2024582E-01  0.2024582E-01  0.0000000E+00  0.0000000E+00
    1       -9.948667   1.000000
    2        2.569999   1.000000
    3        2.726730   1.000000
    4        2.726734   1.000000
    5        3.505687   0.000000
    6        6.489004   0.000000
    7        6.543900   0.000000
    8        6.543901   0.000000
    9       10.405822   0.000000
 
  0.2699443E-01  0.2699443E-01  0.0000000E+00  0.0000000E+00
    1       -9.944050   1.000000
    2        2.468480   1.000000
    3        2.709759   1.000000
    4        2.709763   1.000000
    5        3.606234   0.000000
    6        6.470222   0.000000
    7        6.567137   0.000000
    8        6.567138   0.000000
    9       10.436296   0.000000
 
  0.6748607E-02  0.6748607E-02  0.0000000E+00  0.0000000E+00
    1       -9.953947   1.000000
    2        2.723950   1.000000
    3        2.746410   1.000000
    4        2.746414   1.000000
    5        3.352760   0.000000
    6        6.510898   0.000000
    7        6.517047   0.000000
    8        6.517048   0.000000
    9       10.370543   0.000000
 
  0.1349721E-01  0.1349721E-01  0.0000000E+00  0.0000000E+00
    1       -9.951968   1.000000
    2        2.658825   1.000000
    3        2.738994   1.000000
    4        2.738998   1.000000
    5        3.417511   0.000000
    6        6.502634   0.000000
    7        6.527153   0.000000
    8        6.527154   0.000000
    9       10.383830   0.000000
 
  0.2024582E-01  0.2024582E-01  0.0000000E+00  0.0000000E+00
    1       -9.948667   1.000000
    2        2.569999   1.000000
    3        2.726730   1.000000
    4        2.726734   1.000000
    5        3.505687   0.000000
    6        6.489004   0.000000
    7        6.543900   0.000000
    8        6.543901   0.000000
    9       10.405822   0.000000
 
  0.2699443E-01  0.2699443E-01  0.0000000E+00  0.0000000E+00
    1       -9.944050   1.000000
    2        2.468480   1.000000
    3        2.709759   1.000000
    4        2.709763   1.000000
    5        3.606234   0.000000
    6        6.470222   0.000000
    7        6.567137   0.000000
    8        6.567138   0.000000
    9       10.436296   0.000000
 
  0.6748607E-02  0.6748607E-02  0.0000000E+00  0.0000000E+00
    1       -9.953947   1.000000
    2        2.723950   1.000000
    3        2.746410   1.000000
    4        2.746414   1.000000
    5        3.352760   0.000000
    6        6.510898   0.000000
    7        6.517047   0.000000
    8        6.517048   0.000000
    9       10.370543   0.000000
 
  0.1349721E-01  0.1349721E-01  0.0000000E+00  0.0000000E+00
    1       -9.951968   1.000000
    2        2.658825   1.000000
    3        2.738994   1.000000
    4        2.738998   1.000000
    5        3.417511   0.000000
    6        6.502634   0.000000
    7        6.527153   0.000000
    8        6.527154   0.000000
    9       10.383830   0.000000
 
  0.2024582E-01  0.2024582E-01  0.0000000E+00  0.0000000E+00
    1       -9.948667   1.000000
    2        2.569999   1.000000
    3        2.726730   1.000000
    4        2.726734   1.000000
    5        3.505687   0.000000
    6        6.489004   0.000000
    7        6.543900   0.000000
    8        6.543901   0.000000
    9       10.405822   0.000000
 
  0.2699443E-01  0.2699443E-01  0.0000000E+00  0.0000000E+00
    1       -9.944050   1.000000
    2        2.468480   1.000000
    3        2.709759   1.000000
    4        2.709763   1.000000
    5        3.606234   0.000000
    6        6.470222   0.000000
    7        6.567137   0.000000
    8        6.567138   0.000000
    9       10.436296   0.000000
 
  0.6748607E-02  0.6748607E-02  0.0000000E+00  0.0000000E+00
    1       -9.953947   1.000000
    2        2.723950   1.000000
    3        2.746410   1.000000
    4        2.746414   1.000000
    5        3.352760   0.000000
    6        6.510898   0.000000
    7        6.517047   0.000000
    8        6.517048   0.000000
    9       10.370543   0.000000
 
  0.1349721E-01  0.1349721E-01  0.0000000E+00  0.0000000E+00
    1       -9.951968   1.000000
    2        2.658825   1.000000
    3        2.738994   1.000000
    4        2.738998   1.000000
    5        3.417511   0.000000
    6        6.502634   0.000000
    7        6.527153   0.000000
    8        6.527154   0.000000
    9       10.383830   0.000000
 
  0.2024582E-01  0.2024582E-01  0.0000000E+00  0.0000000E+00
    1       -9.948667   1.000000
    2        2.569999   1.000000
    3        2.726730   1.000000
    4        2.726734   1.000000
    5        3.505687   0.000000
    6        6.489004   0.000000
    7        6.543900   0.000000
    8        6.543901   0.000000
    9       10.405822   0.000000
 
  0.2699443E-01  0.2699443E-01  0.0000000E+00  0.0000000E+00
    1       -9.944050   1.000000
    2        2.468480   1.000000
    3        2.709759   1.000000
    4        2.709763   1.000000
    5        3.606234   0.000000
    6        6.470222   0.000000
    7        6.567137   0.000000
    8        6.567138   0.000000
    9       10.436296   0.000000
 
  0.6748607E-02  0.6748607E-02  0.0000000E+00  0.0000000E+00
    1       -9.953947   1.000000
    2        2.723950   1.000000
    3        2.746410   1.000000
    4        2.746414   1.000000
    5        3.352760   0.000000
    6        6.510898   0.000000
    7        6.517047   0.000000
    8        6.517048   0.000000
    9       10.370543   0.000000
 
  0.1349721E-01  0.1349721E-01  0.0000000E+00  0.0000000E+00
    1       -9.951968   1.000000
    2        2.658825   1.000000
    3        2.738994   1.000000
    4        2.738998   1.000000
    5        3.417511   0.000000
    6        6.502634   0.000000
    7        6.527153   0.000000
    8        6.527154   0.000000
    9       10.383830   0.000000
 
  0.2024582E-01  0.2024582E-01  0.0000000E+00  0.0000000E+00
    1       -9.948667   1.000000
    2        2.569999   1.000000
    3        2.726730   1.000000
    4        2.726734   1.000000
    5        3.505687   0.000000
    6        6.489004   0.000000
    7        6.543900   0.000000
    8        6.543901   0.000000
    9       10.405822   0.000000
 
  0.2699443E-01  0.2699443E-01  0.0000000E+00  0.0000000E+00
    1       -9.944050   1.000000
    2        2.468480   1.000000
    3        2.709759   1.000000
    4        2.709763   1.000000
    5        3.606234   0.000000
    6        6.470222   0.000000
    7        6.567137   0.000000
    8        6.567138   0.000000
    9       10.436296   0.000000
 
  0.6748607E-02  0.6748607E-02  0.0000000E+00  0.0000000E+00
    1       -9.953947   1.000000
    2        2.723950   1.000000
    3        2.746410   1.000000
    4        2.746414   1.000000
    5        3.352760   0.000000
    6        6.510898   0.000000
    7        6.517047   0.000000
    8        6.517048   0.000000
    9       10.370543   0.000000
 
  0.1349721E-01  0.1349721E-01  0.0000000E+00  0.0000000E+00
    1       -9.951968   1.000000
    2        2.658825   1.000000
    3        2.738994   1.000000
    4        2.738998   1.000000
    5        3.417511   0.000000
    6        6.502634   0.000000
    7        6.527153   0.000000
    8        6.527154   0.000000
    9       10.383830   0.000000
 
  0.2024582E-01  0.2024582E-01  0.0000000E+00  0.0000000E+00
    1       -9.948667   1.000000
    2        2.569999   1.000000
    3        2.726730   1.000000
    4        2.726734   1.000000
    5        3.505687   0.000000
    6        6.489004   0.000000
    7        6.543900   0.000000
    8        6.543901   0.000000
    9       10.405822   0.000000
 
  0.2699443E-01  0.2699443E-01  0.0000000E+00  0.0000000E+00
    1       -9.944050   1.000000
    2        2.468480   1.000000
    3        2.709759   1.000000
    4        2.709763   1.000000
    5        3.606234   0.000000
    6        6.470222   0.000000
    7        6.567137   0.000000
    8        6.567138   0.000000
    9       10.436296   0.000000
 
  0.6748607E-02  0.6748607E-02  0.0000000E+00  0.0000000E+00
    1       -9.953947   1.000000
    2        2.723950   1.000000
    3        2.746410   1.000000
    4        2.746414   1.000000
    5        3.352760   0.000000
    6        6.510898   0.000000
    7        6.517047   0.000000
    8        6.517048   0.000000
    9       10.370543   0.000000
 
  0.1349721E-01  0.1349721E-01  0.0000000E+00  0.0000000E+00
    1       -9.951968   1.000000
    2        2.658825   1.000000
    3        2.738994   1.000000
    4        2.738998   1.000000
    5        3.417511   0.000000
    6        6.502634   0.000000
    7        6.527153   0.000000
    8        6.527154   0.000000
    9       10.383830   0.000000
 
  0.2024582E-01  0.2024582E-01  0.0000000E+00  0.0000000E+00
    1       -9.948667   1.000000
    2        2.569999   1.000000
    3        2.726730   1.000000
    4        2.726734   1.000000
    5        3.505687   0.000000
    6        6.489004   0.000000
    7        6.543900   0.000000
    8        6.543901   0.000000
    9       10.405822   0.000000
 
  0.2699443E-01  0.2699443E-01  0.0000000E+00  0.0000000E+00
    1       -9.944050   1.000000
    2        2.468480   1.000000
    3        2.709759   1.000000
    4        2.709763   1.000000
    5        3.606234   0.000000
    6        6.470222   0.000000
    7        6.567137   0.000000
    8        6.567138   0.000000
    9       10.436296   0.000000
 
  0.6748607E-02  0.6748607E-02  0.0000000E+00  0.0000000E+00
    1       -9.953947   1.000000
    2        2.723950   1.000000
    3        2.746410   1.000000
    4        2.746414   1.000000
    5        3.352760   0.000000
    6        6.510898   0.000000
    7        6.517047   0.000000
    8        6.517048   0.000000
    9       10.370543   0.000000
 
  0.1349721E-01  0.1349721E-01  0.0000000E+00  0.0000000E+00
    1       -9.951968   1.000000
    2        2.658825   1.000000
    3        2.738994   1.000000
    4        2.738998   1.000000
    5        3.417511   0.000000
    6        6.502634   0.000000
    7        6.527153   0.000000
    8        6.527154   0.000000
    9       10.383830   0.000000
 
  0.2024582E-01  0.2024582E-01  0.0000000E+00  0.0000000E+00
    1       -9.948667   1.000000
    2        2.569999   1.000000
    3        2.726730   1.000000
    4        2.726734   1.000000
    5        3.505687   0.000000
    6        6.489004   0.000000
    7        6.543900   0.000000
    8        6.543901   0.000000
    9       10.405822   0.000000
 
  0.2699443E-01  0.2699443E-01  0.0000000E+00  0.0000000E+00
    1       -9.944050   1.000000
    2        2.468480   1.000000
    3        2.709759   1.000000
    4        2.709763   1.000000
    5        3.606234   0.000000
    6        6.470222   0.000000
    7        6.567137   0.000000
    8        6.567138   0.000000
    9       10.436296   0.000000
 
  0.6748607E-02  0.6748607E-02  0.0000000E+00  0.0000000E+00
    1       -9.953947   1.000000
    2        2.723950   1.000000
    3        2.746410   1.000000
    4        2.746414   1.000000
    5        3.352760   0.000000
    6        6.510898   0.000000
    7        6.517047   0.000000
    8        6.517048   0.000000
    9       10.370543   0.000000
 
  0.1349721E-01  0.1349721E-01  0.0000000E+00  0.0000000E+00
    1       -9.951968   1.000000
    2        2.658825   1.000000
    3        2.738994   1.000000
    4        2.738998   1.000000
    5        3.417511   0.000000
    6        6.502634   0.000000
    7        6.527153   0.000000
    8        6.527154   0.000000
    9       10.383830   0.000000
 
  0.2024582E-01  0.2024582E-01  0.0000000E+00  0.0000000E+00
    1       -9.948667   1.000000
    2        2.569999   1.000000
    3        2.726730   1.000000
    4        2.726734   1.000000
    5        3.505687   0.000000
    6        6.489004   0.000000
    7        6.543900   0.000000
    8        6.543901   0.000000
    9       10.405822   0.000000
 
  0.2699443E-01  0.2699443E-01  0.0000000E+00  0.0000000E+00
    1       -9.944050   1.000000
    2        2.468480   1.000000
    3        2.709759   1.000000
    4        2.709763   1.000000
    5        3.606234   0.000000
    6        6.470222   0.000000
    7        6.567137   0.000000
    8        6.567138   0.000000
    9       10.436296   0.000000
 
  0.6748607E-02  0.6748607E-02  0.0000000E+00  0.0000000E+00
    1       -9.953947   1.000000
    2        2.723950   1.000000
    3        2.746410   1.000000
    4        2.746414   1.000000
    5        3.352760   0.000000
    6        6.510898   0.000000
    7        6.517047   0.000000
    8        6.517048   0.000000
    9       10.370543   0.000000
 
  0.1349721E-01  0.1349721E-01  0.0000000E+00  0.0000000E+00
    1       -9.951968   1.000000
    2        2.658825   1.000000
    3        2.738994   1.000000
    4        2.738998   1.000000
    5        3.417511   0.000000
    6        6.502634   0.000000
    7        6.527153   0.000000
    8        6.527154   0.000000
    9       10.383830   0.000000
 
  0.2024582E-01  0.2024582E-01  0.0000000E+00  0.0000000E+00
    1       -9.948667   1.000000
    2        2.569999   1.000000
    3        2.726730   1.000000
    4        2.726734   1.000000
    5        3.505687   0.000000
    6        6.489004   0.000000
    7        6.543900   0.000000
    8        6.543901   0.000000
    9       10.405822   0.000000
 
  0.2699443E-01  0.2699443E-01  0.0000000E+00  0.0000000E+00
    1       -9.944050   1.000000
    2        2.468480   1.000000
    3        2.709759   1.000000
    4        2.709763   1.000000
    5        3.606234   0.000000
    6        6.470222   0.000000
    7        6.567137   0.000000
    8        6.567138   0.000000
    9       10.436296   0.000000
 
  0.6748607E-02  0.6748607E-02  0.0000000E+00  0.0000000E+00
    1       -9.953947   1.000000
    2        2.723950   1.000000
    3        2.746410   1.000000
    4        2.746414   1.000000
    5        3.352760   0.000000
    6        6.510898   0.000000
    7        6.517047   0.000000
    8        6.517048   0.000000
    9       10.370543   0.000000
 
  0.1349721E-01  0.1349721E-01  0.0000000E+00  0.0000000E+00
    1       -9.951968   1.000000
    2        2.658825   1.000000
    3        2.738994   1.000000
    4        2.738998   1.000000
    5        3.417511   0.000000
    6        6.502634   0.000000
    7        6.527153   0.000000
    8        6.527154   0.000000
    9       10.383830   0.000000
 
  0.2024582E-01  0.2024582E-01  0.0000000E+00  0.0000000E+00
    1       -9.948667   1.000000
    2        2.569999   1.000000
    3        2.726730   1.000000
    4        2.726734   1.000000
    5        3.505687   0.000000
    6        6.489004   0.000000
    7        6.543900   0.000000
    8        6.543901   0.000000
    9       10.405822   0.000000
 
  0.2699443E-01  0.2699443E-01  0.0000000E+00  0.0000000E+00
    1       -9.944050   1.000000
    2        2.468480   1.000000
    3        2.709759   1.000000
    4        2.709763   1.000000
    5        3.606234   0.000000
    6        6.470222   0.000000
    7        6.567137   0.000000
    8        6.567138   0.000000
    9       10.436296   0.000000
 
  0.6748607E-02  0.6748607E-02  0.0000000E+00  0.0000000E+00
    1       -9.953947   1.000000
    2        2.723950   1.000000
    3        2.746410   1.000000
    4        2.746414   1.000000
    5        3.352760   0.000000
    6        6.510898   0.000000
    7        6.517047   0.000000
    8        6.517048   0.000000
    9       10.370543   0.000000
 
  0.1349721E-01  0.1349721E-01  0.0000000E+00  0.0000000E+00
    1       -9.951968   1.000000
    2        2.658825   1.000000
    3        2.738994   1.000000
    4        2.738998   1.000000
    5        3.417511   0.000000
    6        6.502634   0.000000
    7        6.527153   0.000000
    8        6.527154   0.000000
    9       10.383830   0.000000
 
  0.2024582E-01  0.2024582E-01  0.0000000E+00  0.0000000E+00
    1       -9.948667   1.000000
    2        2.569999   1.000000
    3        2.726730   1.000000
    4        2.726734   1.000000
    5        3.505687   0.000000
    6        6.489004   0.000000
    7        6.543900   0.000000
    8        6.543901   0.000000
    9       10.405822   0.000000
 
  0.2699443E-01  0.2699443E-01  0.0000000E+00  0.0000000E+00
    1       -9.944050   1.000000
    2        2.468480   1.000000
    3        2.709759   1.000000
    4        2.709763   1.000000
    5        3.606234   0.000000
    6        6.470222   0.000000
    7        6.567137   0.000000
    8        6.567138   0.000000
    9       10.436296   0.000000
 
  0.6748607E-02  0.6748607E-02  0.0000000E+00  0.0000000E+00
    1       -9.953947   1.000000
    2        2.723950   1.000000
    3        2.746410   1.000000
    4        2.746414   1.000000
    5        3.352760   0.000000
    6        6.510898   0.000000
    7        6.517047   0.000000
    8        6.517048   0.000000
    9       10.370543   0.000000
 
  0.1349721E-01  0.1349721E-01  0.0000000E+00  0.0000000E+00
    1       -9.951968   1.000000
    2        2.658825   1.000000
    3        2.738994   1.000000
    4        2.738998   1.000000
    5        3.417511   0.000000
    6        6.502634   0.000000
    7        6.527153   0.000000
    8        6.527154   0.000000
    9       10.383830   0.000000
 
  0.2024582E-01  0.2024582E-01  0.0000000E+00  0.0000000E+00
    1       -9.948667   1.000000
    2        2.569999   1.000000
    3        2.726730   1.000000
    4        2.726734   1.000000
    5        3.505687   0.000000
    6        6.489004   0.000000
    7        6.543900   0.000000
    8        6.543901   0.000000
    9       10.405822   0.000000
 
  0.2699443E-01  0.2699443E-01  0.0000000E+00  0.0000000E+00
    1       -9.944050   1.000000
    2        2.468480   1.000000
    3        2.709759   1.000000
    4        2.709763   1.000000
    5        3.606234   0.000000
    6        6.470222   0.000000
    7        6.567137   0.000000
    8        6.567138   0.000000
    9       10.436296   0.000000
 
  0.6748607E-02  0.6748607E-02  0.0000000E+00  0.0000000E+00
    1       -9.953947   1.000000
    2        2.723950   1.000000
    3        2.746410   1.000000
    4        2.746414   1.000000
    5        3.352760   0.000000
    6        6.510898   0.000000