unknown system                          
           1
     0.000000    2.826850    2.826850
     2.826850    0.000000    2.826850
     2.826850    2.826850    0.000000
   As   Ga
     1     1
Direct configuration=     1
   0.25000000  0.25000000  0.25000000
   0.00000000  0.00000000  0.00000000
