<?xml version="1.0" encoding="ISO-8859-1"?>
<modeling>
 <generator>
  <i name="program" type="string">vasp </i>
  <i name="version" type="string">5.4.4.18Apr17-6-g9f103f2a35  </i>
  <i name="subversion" type="string">(build Jul 19 2018 11:24:23) complex            parallel </i>
  <i name="platform" type="string">CrayXC50 </i>
  <i name="date" type="string">2020 03 16 </i>
  <i name="time" type="string">23:09:33 </i>
 </generator>
 <incar>
  <i type="int" name="ISTART">     1</i>
  <i type="string" name="PREC">normal       (precision level)</i>
  <i type="string" name="ALGO"> Damped</i>
  <i type="logical" name="ADDGRID"> T  </i>
  <i type="int" name="NELM">    60</i>
  <i type="int" name="NELMIN">     6</i>
  <i name="EDIFF">      0.00000100</i>
  <i type="int" name="NEDOS">  2000</i>
  <i type="logical" name="LREAL"> F  </i>
  <i name="TIME">      0.40000000</i>
  <i type="int" name="ISMEAR">     0</i>
  <i name="SIGMA">      0.05000000</i>
  <i type="logical" name="LWAVE"> T  </i>
  <i type="logical" name="LCHARG"> T  </i>
  <i type="logical" name="LOPTICS"> T  </i>
  <v type="int" name="KPOINT_BSE">    -1     0     0     0</v>
  <i name="CSHIFT">      0.10000000</i>
  <i type="int" name="NELM">    60</i>
  <i type="logical" name="LHFCALC"> T  </i>
  <i type="int" name="NKRED">     4</i>
  <i name="HFSCREEN">      0.20000000</i>
  <i name="AEXX">      0.25000000</i>
  <i type="string" name="PRECFOCK">normal</i>
  <i name="CSHIFT">      0.10000000</i>
 </incar>
 <structure name="primitive_cell" >
  <crystal>
   <varray name="basis" >
    <v>       0.00000000       2.82685000       2.82685000 </v>
    <v>       2.82685000       0.00000000       2.82685000 </v>
    <v>       2.82685000       2.82685000       0.00000000 </v>
   </varray>
   <i name="volume">     45.17917421 </i>
   <varray name="rec_basis" >
    <v>      -0.17687532       0.17687532       0.17687532 </v>
    <v>       0.17687532      -0.17687532       0.17687532 </v>
    <v>       0.17687532       0.17687532      -0.17687532 </v>
   </varray>
  </crystal>
  <varray name="positions" >
   <v>       0.25000000       0.25000000       0.25000000 </v>
   <v>       0.00000000       0.00000000       0.00000000 </v>
  </varray>
 </structure>
 <varray name="primitive_index" >
  <v type="int" >        1 </v>
  <v type="int" >        2 </v>
 </varray>
 <kpoints>
  <generation param="Gamma">
   <v type="int" name="divisions">      16       16       16 </v>
   <v name="usershift">      0.00000000       0.00000000       0.00000000 </v>
   <v name="genvec1">      0.06250000       0.00000000      -0.00000000 </v>
   <v name="genvec2">      0.00000000       0.06250000       0.00000000 </v>
   <v name="genvec3">     -0.00000000      -0.00000000       0.06250000 </v>
   <v name="shift">      0.00000000       0.00000000       0.00000000 </v>
  </generation>
  <varray name="kpointlist" >
   <v>       0.00000000       0.00000000       0.00000000 </v>
   <v>       0.06250000      -0.00000000       0.00000000 </v>
   <v>       0.12500000      -0.00000000       0.00000000 </v>
   <v>       0.18750000       0.00000000      -0.00000000 </v>
   <v>       0.25000000      -0.00000000       0.00000000 </v>
   <v>       0.31250000      -0.00000000       0.00000000 </v>
   <v>       0.37500000       0.00000000      -0.00000000 </v>
   <v>       0.43750000       0.00000000       0.00000000 </v>
   <v>       0.50000000      -0.00000000       0.00000000 </v>
   <v>       0.06250000       0.06250000       0.00000000 </v>
   <v>       0.12500000       0.06250000      -0.00000000 </v>
   <v>       0.18750000       0.06250000       0.00000000 </v>
   <v>       0.25000000       0.06250000       0.00000000 </v>
   <v>       0.31250000       0.06250000       0.00000000 </v>
   <v>       0.37500000       0.06250000       0.00000000 </v>
   <v>       0.43750000       0.06250000       0.00000000 </v>
   <v>       0.50000000       0.06250000       0.00000000 </v>
   <v>      -0.43750000       0.06250000      -0.00000000 </v>
   <v>      -0.37500000       0.06250000      -0.00000000 </v>
   <v>      -0.31250000       0.06250000       0.00000000 </v>
   <v>      -0.25000000       0.06250000      -0.00000000 </v>
   <v>      -0.18750000       0.06250000      -0.00000000 </v>
   <v>      -0.12500000       0.06250000       0.00000000 </v>
   <v>      -0.06250000       0.06250000      -0.00000000 </v>
   <v>       0.12500000       0.12500000       0.00000000 </v>
   <v>       0.18750000       0.12500000       0.00000000 </v>
   <v>       0.25000000       0.12500000      -0.00000000 </v>
   <v>       0.31250000       0.12500000       0.00000000 </v>
   <v>       0.37500000       0.12500000       0.00000000 </v>
   <v>       0.43750000       0.12500000       0.00000000 </v>
   <v>       0.50000000       0.12500000       0.00000000 </v>
   <v>      -0.43750000       0.12500000      -0.00000000 </v>
   <v>      -0.37500000       0.12500000      -0.00000000 </v>
   <v>      -0.31250000       0.12500000      -0.00000000 </v>
   <v>      -0.25000000       0.12500000       0.00000000 </v>
   <v>      -0.18750000       0.12500000      -0.00000000 </v>
   <v>      -0.12500000       0.12500000      -0.00000000 </v>
   <v>       0.18750000       0.18750000       0.00000000 </v>
   <v>       0.25000000       0.18750000       0.00000000 </v>
   <v>       0.31250000       0.18750000       0.00000000 </v>
   <v>       0.37500000       0.18750000       0.00000000 </v>
   <v>       0.43750000       0.18750000       0.00000000 </v>
   <v>       0.50000000       0.18750000      -0.00000000 </v>
   <v>      -0.43750000       0.18750000      -0.00000000 </v>
   <v>      -0.37500000       0.18750000      -0.00000000 </v>
   <v>      -0.31250000       0.18750000      -0.00000000 </v>
   <v>      -0.25000000       0.18750000      -0.00000000 </v>
   <v>      -0.18750000       0.18750000       0.00000000 </v>
   <v>       0.25000000       0.25000000       0.00000000 </v>
   <v>       0.31250000       0.25000000      -0.00000000 </v>
   <v>       0.37500000       0.25000000       0.00000000 </v>
   <v>       0.43750000       0.25000000       0.00000000 </v>
   <v>       0.50000000       0.25000000      -0.00000000 </v>
   <v>      -0.43750000       0.25000000      -0.00000000 </v>
   <v>      -0.37500000       0.25000000      -0.00000000 </v>
   <v>      -0.31250000       0.25000000      -0.00000000 </v>
   <v>      -0.25000000       0.25000000      -0.00000000 </v>
   <v>       0.31250000       0.31250000       0.00000000 </v>
   <v>       0.37500000       0.31250000       0.00000000 </v>
   <v>       0.43750000       0.31250000       0.00000000 </v>
   <v>       0.50000000       0.31250000       0.00000000 </v>
   <v>      -0.43750000       0.31250000       0.00000000 </v>
   <v>      -0.37500000       0.31250000      -0.00000000 </v>
   <v>      -0.31250000       0.31250000      -0.00000000 </v>
   <v>       0.37500000       0.37500000       0.00000000 </v>
   <v>       0.43750000       0.37500000       0.00000000 </v>
   <v>       0.50000000       0.37500000       0.00000000 </v>
   <v>      -0.43750000       0.37500000       0.00000000 </v>
   <v>      -0.37500000       0.37500000       0.00000000 </v>
   <v>       0.43750000       0.43750000       0.00000000 </v>
   <v>       0.50000000       0.43750000       0.00000000 </v>
   <v>      -0.43750000       0.43750000       0.00000000 </v>
   <v>       0.50000000       0.50000000       0.00000000 </v>
   <v>       0.18750000       0.12500000       0.06250000 </v>
   <v>       0.25000000       0.12500000       0.06250000 </v>
   <v>       0.31250000       0.12500000       0.06250000 </v>
   <v>       0.37500000       0.12500000       0.06250000 </v>
   <v>       0.43750000       0.12500000       0.06250000 </v>
   <v>       0.50000000       0.12500000       0.06250000 </v>
   <v>      -0.43750000       0.12500000       0.06250000 </v>
   <v>       0.25000000       0.18750000       0.06250000 </v>
   <v>       0.31250000       0.18750000       0.06250000 </v>
   <v>       0.37500000       0.18750000       0.06250000 </v>
   <v>       0.43750000       0.18750000       0.06250000 </v>
   <v>       0.50000000       0.18750000       0.06250000 </v>
   <v>      -0.43750000       0.18750000       0.06250000 </v>
   <v>      -0.37500000       0.18750000       0.06250000 </v>
   <v>      -0.31250000       0.18750000       0.06250000 </v>
   <v>      -0.25000000       0.18750000       0.06250000 </v>
   <v>      -0.18750000       0.18750000       0.06250000 </v>
   <v>      -0.12500000       0.18750000       0.06250000 </v>
   <v>       0.31250000       0.25000000       0.06250000 </v>
   <v>       0.37500000       0.25000000       0.06250000 </v>
   <v>       0.43750000       0.25000000       0.06250000 </v>
   <v>       0.50000000       0.25000000       0.06250000 </v>
   <v>      -0.43750000       0.25000000       0.06250000 </v>
   <v>      -0.37500000       0.25000000       0.06250000 </v>
   <v>      -0.31250000       0.25000000       0.06250000 </v>
   <v>      -0.25000000       0.25000000       0.06250000 </v>
   <v>      -0.18750000       0.25000000       0.06250000 </v>
   <v>       0.37500000       0.31250000       0.06250000 </v>
   <v>       0.43750000       0.31250000       0.06250000 </v>
   <v>       0.50000000       0.31250000       0.06250000 </v>
   <v>      -0.43750000       0.31250000       0.06250000 </v>
   <v>      -0.37500000       0.31250000       0.06250000 </v>
   <v>      -0.31250000       0.31250000       0.06250000 </v>
   <v>      -0.25000000       0.31250000       0.06250000 </v>
   <v>       0.43750000       0.37500000       0.06250000 </v>
   <v>       0.50000000       0.37500000       0.06250000 </v>
   <v>      -0.43750000       0.37500000       0.06250000 </v>
   <v>      -0.37500000       0.37500000       0.06250000 </v>
   <v>      -0.31250000       0.37500000       0.06250000 </v>
   <v>       0.50000000       0.43750000       0.06250000 </v>
   <v>      -0.43750000       0.43750000       0.06250000 </v>
   <v>      -0.37500000       0.43750000       0.06250000 </v>
   <v>      -0.43750000       0.50000000       0.06250000 </v>
   <v>       0.37500000       0.25000000       0.12500000 </v>
   <v>       0.43750000       0.25000000       0.12500000 </v>
   <v>       0.50000000       0.25000000       0.12500000 </v>
   <v>      -0.43750000       0.25000000       0.12500000 </v>
   <v>      -0.37500000       0.25000000       0.12500000 </v>
   <v>       0.43750000       0.31250000       0.12500000 </v>
   <v>       0.50000000       0.31250000       0.12500000 </v>
   <v>      -0.43750000       0.31250000       0.12500000 </v>
   <v>      -0.37500000       0.31250000       0.12500000 </v>
   <v>      -0.31250000       0.31250000       0.12500000 </v>
   <v>      -0.25000000       0.31250000       0.12500000 </v>
   <v>      -0.18750000       0.31250000       0.12500000 </v>
   <v>       0.50000000       0.37500000       0.12500000 </v>
   <v>      -0.43750000       0.37500000       0.12500000 </v>
   <v>      -0.37500000       0.37500000       0.12500000 </v>
   <v>      -0.31250000       0.37500000       0.12500000 </v>
   <v>      -0.25000000       0.37500000       0.12500000 </v>
   <v>      -0.43750000       0.43750000       0.12500000 </v>
   <v>      -0.37500000       0.43750000       0.12500000 </v>
   <v>      -0.31250000       0.43750000       0.12500000 </v>
   <v>      -0.37500000       0.50000000       0.12500000 </v>
   <v>      -0.43750000       0.37500000       0.18750000 </v>
   <v>      -0.37500000       0.37500000       0.18750000 </v>
   <v>      -0.31250000       0.37500000       0.18750000 </v>
   <v>      -0.37500000       0.43750000       0.18750000 </v>
   <v>      -0.31250000       0.43750000       0.18750000 </v>
   <v>      -0.25000000       0.43750000       0.18750000 </v>
   <v>      -0.31250000       0.50000000       0.18750000 </v>
   <v>      -0.25000000       0.50000000       0.25000000 </v>
  </varray>
  <varray name="weights" >
   <v>       0.00024414 </v>
   <v>       0.00195312 </v>
   <v>       0.00195312 </v>
   <v>       0.00195312 </v>
   <v>       0.00195312 </v>
   <v>       0.00195312 </v>
   <v>       0.00195312 </v>
   <v>       0.00195312 </v>
   <v>       0.00097656 </v>
   <v>       0.00146484 </v>
   <v>       0.00585938 </v>
   <v>       0.00585938 </v>
   <v>       0.00585938 </v>
   <v>       0.00585938 </v>
   <v>       0.00585938 </v>
   <v>       0.00585938 </v>
   <v>       0.00585938 </v>
   <v>       0.00585938 </v>
   <v>       0.00585938 </v>
   <v>       0.00585938 </v>
   <v>       0.00585938 </v>
   <v>       0.00585938 </v>
   <v>       0.00585938 </v>
   <v>       0.00292969 </v>
   <v>       0.00146484 </v>
   <v>       0.00585938 </v>
   <v>       0.00585938 </v>
   <v>       0.00585938 </v>
   <v>       0.00585938 </v>
   <v>       0.00585938 </v>
   <v>       0.00585938 </v>
   <v>       0.00585938 </v>
   <v>       0.00585938 </v>
   <v>       0.00585938 </v>
   <v>       0.00585938 </v>
   <v>       0.00585938 </v>
   <v>       0.00292969 </v>
   <v>       0.00146484 </v>
   <v>       0.00585938 </v>
   <v>       0.00585938 </v>
   <v>       0.00585938 </v>
   <v>       0.00585938 </v>
   <v>       0.00585938 </v>
   <v>       0.00585938 </v>
   <v>       0.00585938 </v>
   <v>       0.00585938 </v>
   <v>       0.00585938 </v>
   <v>       0.00292969 </v>
   <v>       0.00146484 </v>
   <v>       0.00585938 </v>
   <v>       0.00585938 </v>
   <v>       0.00585938 </v>
   <v>       0.00585938 </v>
   <v>       0.00585938 </v>
   <v>       0.00585938 </v>
   <v>       0.00585938 </v>
   <v>       0.00292969 </v>
   <v>       0.00146484 </v>
   <v>       0.00585938 </v>
   <v>       0.00585938 </v>
   <v>       0.00585938 </v>
   <v>       0.00585938 </v>
   <v>       0.00585938 </v>
   <v>       0.00292969 </v>
   <v>       0.00146484 </v>
   <v>       0.00585938 </v>
   <v>       0.00585938 </v>
   <v>       0.00585938 </v>
   <v>       0.00292969 </v>
   <v>       0.00146484 </v>
   <v>       0.00585938 </v>
   <v>       0.00292969 </v>
   <v>       0.00073242 </v>
   <v>       0.00585938 </v>
   <v>       0.01171875 </v>
   <v>       0.01171875 </v>
   <v>       0.01171875 </v>
   <v>       0.01171875 </v>
   <v>       0.01171875 </v>
   <v>       0.00585938 </v>
   <v>       0.00585938 </v>
   <v>       0.01171875 </v>
   <v>       0.01171875 </v>
   <v>       0.01171875 </v>
   <v>       0.01171875 </v>
   <v>       0.01171875 </v>
   <v>       0.01171875 </v>
   <v>       0.01171875 </v>
   <v>       0.01171875 </v>
   <v>       0.01171875 </v>
   <v>       0.00585938 </v>
   <v>       0.00585938 </v>
   <v>       0.01171875 </v>
   <v>       0.01171875 </v>
   <v>       0.01171875 </v>
   <v>       0.01171875 </v>
   <v>       0.01171875 </v>
   <v>       0.01171875 </v>
   <v>       0.01171875 </v>
   <v>       0.00585938 </v>
   <v>       0.00585938 </v>
   <v>       0.01171875 </v>
   <v>       0.01171875 </v>
   <v>       0.01171875 </v>
   <v>       0.01171875 </v>
   <v>       0.01171875 </v>
   <v>       0.00585938 </v>
   <v>       0.00585938 </v>
   <v>       0.01171875 </v>
   <v>       0.01171875 </v>
   <v>       0.01171875 </v>
   <v>       0.00585938 </v>
   <v>       0.00585938 </v>
   <v>       0.01171875 </v>
   <v>       0.00585938 </v>
   <v>       0.00292969 </v>
   <v>       0.00585938 </v>
   <v>       0.01171875 </v>
   <v>       0.01171875 </v>
   <v>       0.01171875 </v>
   <v>       0.00585938 </v>
   <v>       0.00585938 </v>
   <v>       0.01171875 </v>
   <v>       0.01171875 </v>
   <v>       0.01171875 </v>
   <v>       0.01171875 </v>
   <v>       0.01171875 </v>
   <v>       0.00585938 </v>
   <v>       0.00585938 </v>
   <v>       0.01171875 </v>
   <v>       0.01171875 </v>
   <v>       0.01171875 </v>
   <v>       0.00585938 </v>
   <v>       0.00585938 </v>
   <v>       0.01171875 </v>
   <v>       0.00585938 </v>
   <v>       0.00292969 </v>
   <v>       0.00585938 </v>
   <v>       0.01171875 </v>
   <v>       0.00585938 </v>
   <v>       0.00585938 </v>
   <v>       0.01171875 </v>
   <v>       0.00585938 </v>
   <v>       0.00292969 </v>
   <v>       0.00146484 </v>
  </varray>
 </kpoints>
 <parameters>
  <separator name="general" >
   <i type="string" name="SYSTEM">unknown system</i>
   <i type="logical" name="LCOMPAT"> F  </i>
  </separator>
  <separator name="electronic" >
   <i type="string" name="PREC">normal</i>
   <i name="ENMAX">    208.68000000</i>
   <i name="ENAUG">    462.75800000</i>
   <i name="EDIFF">      0.00000100</i>
   <i type="int" name="IALGO">    53</i>
   <i type="int" name="IWAVPR">    10</i>
   <i type="int" name="NBANDS">    72</i>
   <i name="NELECT">      8.00000000</i>
   <i type="int" name="TURBO">     0</i>
   <i type="int" name="IRESTART">     0</i>
   <i type="int" name="NREBOOT">     0</i>
   <i type="int" name="NMIN">     0</i>
   <i name="EREF">      0.00000000</i>
   <separator name="electronic smearing" >
    <i type="int" name="ISMEAR">     0</i>
    <i name="SIGMA">      0.05000000</i>
    <i name="KSPACING">      0.50000000</i>
    <i type="logical" name="KGAMMA"> T  </i>
   </separator>
   <separator name="electronic projectors" >
    <i type="logical" name="LREAL"> F  </i>
    <v name="ROPT">      0.00000000      0.00000000</v>
    <i type="int" name="LMAXPAW">  -100</i>
    <i type="int" name="LMAXMIX">     2</i>
    <i type="logical" name="NLSPLINE"> F  </i>
   </separator>
   <separator name="electronic startup" >
    <i type="int" name="ISTART">     1</i>
    <i type="int" name="ICHARG">     0</i>
    <i type="int" name="INIWAV">     1</i>
   </separator>
   <separator name="electronic spin" >
    <i type="int" name="ISPIN">     1</i>
    <i type="logical" name="LNONCOLLINEAR"> F  </i>
    <v name="MAGMOM">      1.00000000      1.00000000</v>
    <i name="NUPDOWN">     -1.00000000</i>
    <i type="logical" name="LSORBIT"> F  </i>
    <v name="SAXIS">      0.00000000      0.00000000      1.00000000</v>
    <i type="logical" name="LSPIRAL"> F  </i>
    <v name="QSPIRAL">      0.00000000      0.00000000      0.00000000</v>
    <i type="logical" name="LZEROZ"> F  </i>
   </separator>
   <separator name="electronic exchange-correlation" >
    <i type="logical" name="LASPH"> F  </i>
    <i type="logical" name="LMETAGGA"> F  </i>
   </separator>
   <separator name="electronic convergence" >
    <i type="int" name="NELM">    60</i>
    <i type="int" name="NELMDL">     0</i>
    <i type="int" name="NELMIN">     6</i>
    <i name="ENINI">    208.68000000</i>
    <separator name="electronic convergence detail" >
     <i type="logical" name="LDIAG"> T  </i>
     <i type="logical" name="LSUBROT"> F  </i>
     <i name="WEIMIN">      0.00000000</i>
     <i name="EBREAK">      0.00000000</i>
     <i name="DEPER">      0.30000000</i>
     <i type="int" name="NRMM">     4</i>
     <i name="TIME">      0.40000000</i>
    </separator>
   </separator>
   <separator name="electronic mixer" >
    <i name="AMIX">      0.40000000</i>
    <i name="BMIX">      1.00000000</i>
    <i name="AMIN">      0.10000000</i>
    <i name="AMIX_MAG">      1.60000000</i>
    <i name="BMIX_MAG">      1.00000000</i>
    <separator name="electronic mixer details" >
     <i type="int" name="IMIX">     4</i>
     <i type="logical" name="MIXFIRST"> F  </i>
     <i type="int" name="MAXMIX">   -45</i>
     <i name="WC">    100.00000000</i>
     <i type="int" name="INIMIX">     1</i>
     <i type="int" name="MIXPRE">     1</i>
     <i type="int" name="MREMOVE">     5</i>
    </separator>
   </separator>
   <separator name="electronic dipolcorrection" >
    <i type="logical" name="LDIPOL"> F  </i>
    <i type="logical" name="LMONO"> F  </i>
    <i type="int" name="IDIPOL">     0</i>
    <i name="EPSILON">      1.00000000</i>
    <v name="DIPOL">   -100.00000000   -100.00000000   -100.00000000</v>
    <i name="EFIELD">      0.00000000</i>
   </separator>
  </separator>
  <separator name="grids" >
   <i type="int" name="NGX">    14</i>
   <i type="int" name="NGY">    14</i>
   <i type="int" name="NGZ">    14</i>
   <i type="int" name="NGXF">    28</i>
   <i type="int" name="NGYF">    28</i>
   <i type="int" name="NGZF">    28</i>
   <i type="logical" name="ADDGRID"> T  </i>
  </separator>
  <separator name="ionic" >
   <i type="int" name="NSW">     0</i>
   <i type="int" name="IBRION">    -1</i>
   <i type="int" name="MDALGO">     0</i>
   <i type="int" name="ISIF">     0</i>
   <i name="PSTRESS">      0.00000000</i>
   <i name="EDIFFG">      0.00001000</i>
   <i type="int" name="NFREE">     0</i>
   <i name="POTIM">      0.50000000</i>
   <i name="SMASS">     -3.00000000</i>
   <i name="SCALEE">      1.00000000</i>
  </separator>
  <separator name="ionic md" >
   <i name="TEBEG">      0.00010000</i>
   <i name="TEEND">      0.00010000</i>
   <i type="int" name="NBLOCK">     1</i>
   <i type="int" name="KBLOCK">     1</i>
   <i type="int" name="NPACO">   256</i>
   <i name="APACO">     16.00000000</i>
  </separator>
  <separator name="symmetry" >
   <i type="int" name="ISYM">     3</i>
   <i name="SYMPREC">      0.00001000</i>
  </separator>
  <separator name="dos" >
   <i type="int" name="LORBIT">     0</i>
   <v name="RWIGS">     -1.00000000     -1.00000000</v>
   <i type="int" name="NEDOS">  2000</i>
   <i name="EMIN">     10.00000000</i>
   <i name="EMAX">    -10.00000000</i>
   <i name="EFERMI">      0.00000000</i>
  </separator>
  <separator name="writing" >
   <i type="int" name="NWRITE">     2</i>
   <i type="logical" name="LWAVE"> T  </i>
   <i type="logical" name="LDOWNSAMPLE"> F  </i>
   <i type="logical" name="LCHARG"> T  </i>
   <i type="logical" name="LPARD"> F  </i>
   <i type="logical" name="LVTOT"> F  </i>
   <i type="logical" name="LVHAR"> F  </i>
   <i type="logical" name="LELF"> F  </i>
   <i type="logical" name="LOPTICS"> T  </i>
   <v name="STM">      0.00000000      0.00000000      0.00000000      0.00000000      0.00000000      0.00000000      0.00000000</v>
  </separator>
  <separator name="performance" >
   <i type="int" name="NPAR">    72</i>
   <i type="int" name="NSIM">     4</i>
   <i type="int" name="NBLK">    -1</i>
   <i type="logical" name="LPLANE"> T  </i>
   <i type="logical" name="LSCALAPACK"> T  </i>
   <i type="logical" name="LSCAAWARE"> T  </i>
   <i type="logical" name="LSCALU"> F  </i>
   <i type="logical" name="LASYNC"> F  </i>
   <i type="logical" name="LORBITALREAL"> F  </i>
  </separator>
  <separator name="miscellaneous" >
   <i type="int" name="IDIOT">     3</i>
   <i type="int" name="ISPECIAL">     0</i>
   <i type="logical" name="LMUSIC"> F  </i>
   <v name="POMASS">     74.92200000     69.72300000</v>
   <v name="DARWINR">      0.00000000      0.00000000</v>
   <v name="DARWINV">      1.00000000      1.00000000</v>
   <i type="logical" name="LCORR"> T  </i>
  </separator>
  <i type="logical" name="GGA_COMPAT"> T  </i>
  <i type="logical" name="LBERRY"> F  </i>
  <i type="int" name="ICORELEVEL">     0</i>
  <i type="logical" name="LDAU"> F  </i>
  <i type="int" name="I_CONSTRAINED_M">     0</i>
  <separator name="electronic exchange-correlation" >
   <i type="string" name="GGA">--</i>
   <i type="int" name="VOSKOWN">     0</i>
   <i type="logical" name="LHFCALC"> T  </i>
   <i type="string" name="PRECFOCK">normal</i>
   <i type="logical" name="LSYMGRAD"> F  </i>
   <i type="logical" name="LHFONE"> F  </i>
   <i type="logical" name="LRHFCALC"> F  </i>
   <i type="logical" name="LTHOMAS"> F  </i>
   <i type="logical" name="LMODELHF"> F  </i>
   <i name="ENCUT4O">     -1.00000000</i>
   <i type="int" name="EXXOEP">     0</i>
   <i type="int" name="FOURORBIT">     0</i>
   <i name="AEXX">      0.25000000</i>
   <i name="HFALPHA">     -1.00000000</i>
   <i name="MCALPHA">      0.00000000</i>
   <i name="ALDAX">      0.75000000</i>
   <i name="AGGAX">      0.75000000</i>
   <i name="ALDAC">      1.00000000</i>
   <i name="AGGAC">      1.00000000</i>
   <i type="int" name="NKREDX">     4</i>
   <i type="int" name="NKREDY">     4</i>
   <i type="int" name="NKREDZ">     4</i>
   <i type="logical" name="SHIFTRED"> F  </i>
   <i type="logical" name="ODDONLY"> F  </i>
   <i type="logical" name="EVENONLY"> F  </i>
   <i type="int" name="LMAXFOCK">     4</i>
   <i type="int" name="NMAXFOCKAE">     1</i>
   <i type="logical" name="LFOCKAEDFT"> F  </i>
   <i name="HFSCREEN">      0.20000000</i>
   <i name="HFSCREENC">      0.20000000</i>
   <i type="int" name="NBANDSGWLOW">     1</i>
  </separator>
  <separator name="vdW DFT" >
   <i type="logical" name="LUSE_VDW"> F  </i>
   <i name="Zab_VDW">     -0.84910000</i>
   <i name="PARAM1">      0.12340000</i>
   <i name="PARAM2">      1.00000000</i>
   <i name="PARAM3">      0.00000000</i>
  </separator>
  <separator name="model GW" >
   <i type="int" name="MODEL_GW">     0</i>
   <i name="MODEL_EPS0">     13.55375226</i>
   <i name="MODEL_ALPHA">      1.00000000</i>
  </separator>
  <separator name="linear response parameters" >
   <i type="logical" name="LEPSILON"> F  </i>
   <i type="logical" name="LRPA"> F  </i>
   <i type="logical" name="LNABLA"> F  </i>
   <i type="logical" name="LVEL"> F  </i>
   <i type="int" name="KINTER">     0</i>
   <i name="CSHIFT">      0.10000000</i>
   <i name="OMEGAMAX">     -1.00000000</i>
   <i name="DEG_THRESHOLD">      0.00200000</i>
   <i name="RTIME">     -0.10000000</i>
   <i name="WPLASMAI">      0.00000000</i>
   <v name="DFIELD">      0.00000000      0.00000000      0.00000000</v>
   <v name="WPLASMA">      0.00000000      0.00000000      0.00000000      0.00000000      0.00000000      0.00000000      0.00000000      0.00000000      0.00000000</v>
  </separator>
  <separator name="orbital magnetization" >
   <i type="logical" name="NUCIND"> F  </i>
   <v name="MAGPOS">      0.00000000      0.00000000      0.00000000</v>
   <i type="logical" name="LNICSALL"> T  </i>
   <i type="logical" name="ORBITALMAG"> F  </i>
   <i type="logical" name="LMAGBLOCH"> F  </i>
   <i type="logical" name="LCHIMAG"> F  </i>
   <i type="logical" name="LGAUGE"> T  </i>
   <i type="int" name="MAGATOM">     0</i>
   <v name="MAGDIPOL">      0.00000000      0.00000000      0.00000000</v>
   <v name="AVECCONST">      0.00000000      0.00000000      0.00000000</v>
  </separator>
  <separator name="response functions" >
   <i type="logical" name="LADDER"> F  </i>
   <i type="logical" name="LRPAFORCE"> F  </i>
   <i type="logical" name="LFXC"> F  </i>
   <i type="logical" name="LHARTREE"> T  </i>
   <i type="int" name="IBSE">     0</i>
   <v type="int" name="KPOINT">    -1     0     0     0</v>
   <i type="logical" name="LTCTE"> F  </i>
   <i type="logical" name="LTETE"> F  </i>
   <i type="logical" name="LTRIPLET"> F  </i>
   <i type="logical" name="LFXCEPS"> F  </i>
   <i type="logical" name="LFXHEG"> F  </i>
   <i type="int" name="NATURALO">     2</i>
   <i type="logical" name="L2ORDER"> F  </i>
   <i type="logical" name="LMP2LT"> F  </i>
   <i type="logical" name="LUSEW"> F  </i>
   <i name="ENCUTGW">     -2.00000000</i>
   <i name="ENCUTGWSOFT">     -2.00000000</i>
   <i name="ENCUTLF">     -1.00000000</i>
   <i type="int" name="LMAXMP2">    -1</i>
   <i name="SCISSOR">      0.00000000</i>
   <i type="int" name="NOMEGA">     0</i>
   <i type="int" name="NOMEGAR">     0</i>
   <i type="int" name="NBANDSGW">    -1</i>
   <i type="int" name="NBANDSO">    -1</i>
   <i type="int" name="NBANDSV">    -1</i>
   <i type="int" name="NELM">    60</i>
   <i type="int" name="NELMHF">     1</i>
   <i type="int" name="DIM">     3</i>
   <i type="int" name="ANTIRES">     0</i>
   <i name="OMEGAMAX">    -30.00000000</i>
   <i name="OMEGAMIN">    -30.00000000</i>
   <i name="OMEGATL">   -200.00000000</i>
   <i type="int" name="OMEGAGRID">   140</i>
   <i name="CSHIFT">      0.10000000</i>
   <i type="logical" name="SELFENERGY"> F  </i>
   <i type="logical" name="LSPECTRAL"> F  </i>
   <i type="logical" name="LSPECTRALGW"> F  </i>
   <i type="logical" name="LSINGLES"> F  </i>
   <i type="logical" name="LFERMIGW"> F  </i>
   <i type="logical" name="ODDONLYGW"> F  </i>
   <i type="logical" name="EVENONLYGW"> F  </i>
   <i type="int" name="NKREDLFX">     1</i>
   <i type="int" name="NKREDLFY">     1</i>
   <i type="int" name="NKREDLFZ">     1</i>
   <i type="int" name="MAXMEM">  2800</i>
   <i type="int" name="TELESCOPE">     0</i>
   <i type="int" name="TAUPAR">     1</i>
   <i type="int" name="OMEGAPAR">    -1</i>
   <i name="LAMBDA">      1.00000000</i>
  </separator>
  <separator name="External order field" >
   <i name="OFIELD_KAPPA">      0.00000000</i>
   <v name="OFIELD_K">      0.00000000      0.00000000      0.00000000</v>
   <i name="OFIELD_Q6_NEAR">      0.00000000</i>
   <i name="OFIELD_Q6_FAR">      0.00000000</i>
   <i name="OFIELD_A">      0.00000000</i>
  </separator>
 </parameters>
 <atominfo>
  <atoms>       2 </atoms>
  <types>       2 </types>
  <array name="atoms" >
   <dimension dim="1">ion</dimension>
   <field type="string">element</field>
   <field type="int">atomtype</field>
   <set>
    <rc><c>As</c><c>   1</c></rc>
    <rc><c>Ga</c><c>   2</c></rc>
   </set>
  </array>
  <array name="atomtypes" >
   <dimension dim="1">type</dimension>
   <field type="int">atomspertype</field>
   <field type="string">element</field>
   <field>mass</field>
   <field>valence</field>
   <field type="string">pseudopotential</field>
   <set>
    <rc><c>   1</c><c>As</c><c>     74.92200000</c><c>      5.00000000</c><c> PAW_PBE As 06Sep2000                   </c></rc>
    <rc><c>   1</c><c>Ga</c><c>     69.72300000</c><c>      3.00000000</c><c> PAW_PBE Ga 08Apr2002                   </c></rc>
   </set>
  </array>
 </atominfo>
 <structure name="initialpos" >
  <crystal>
   <varray name="basis" >
    <v>       0.00000000       2.82685000       2.82685000 </v>
    <v>       2.82685000       0.00000000       2.82685000 </v>
    <v>       2.82685000       2.82685000       0.00000000 </v>
   </varray>
   <i name="volume">     45.17917421 </i>
   <varray name="rec_basis" >
    <v>      -0.17687532       0.17687532       0.17687532 </v>
    <v>       0.17687532      -0.17687532       0.17687532 </v>
    <v>       0.17687532       0.17687532      -0.17687532 </v>
   </varray>
  </crystal>
  <varray name="positions" >
   <v>       0.25000000       0.25000000       0.25000000 </v>
   <v>       0.00000000       0.00000000       0.00000000 </v>
  </varray>
 </structure>
 <calculation>
  <scstep>
   <time name="total">   42.26   42.29</time>
   <energy>
    <i name="alphaZ">     18.92447533 </i>
    <i name="ewald">   -229.15493751 </i>
    <i name="hartreedc">    -21.10706082 </i>
    <i name="XCdc">    -24.77462298 </i>
    <i name="pawpsdc">    127.94635134 </i>
    <i name="pawaedc">    -91.69622734 </i>
    <i name="eentropy">     -0.00000000 </i>
    <i name="bandstr">    -26.89682331 </i>
    <i name="atom">    225.32280704 </i>
    <i name="e_fr_energy">    -10.41406302 </i>
    <i name="e_wo_entrp">    -10.41406302 </i>
    <i name="e_0_energy">    -10.41406302 </i>
   </energy>
  </scstep>
  <scstep>
   <time name="total">   42.16   42.20</time>
   <energy>
    <i name="e_fr_energy">    -10.43301797 </i>
    <i name="e_wo_entrp">    -10.43301797 </i>
    <i name="e_0_energy">    -10.43301797 </i>
   </energy>
  </scstep>
  <scstep>
   <time name="total">   42.30   42.33</time>
   <energy>
    <i name="e_fr_energy">    -10.44672924 </i>
    <i name="e_wo_entrp">    -10.44672924 </i>
    <i name="e_0_energy">    -10.44672924 </i>
   </energy>
  </scstep>
  <scstep>
   <time name="total">   42.26   42.29</time>
   <energy>
    <i name="e_fr_energy">    -10.45394188 </i>
    <i name="e_wo_entrp">    -10.45394188 </i>
    <i name="e_0_energy">    -10.45394188 </i>
   </energy>
  </scstep>
  <scstep>
   <time name="total">   42.22   42.25</time>
   <energy>
    <i name="e_fr_energy">    -10.45777239 </i>
    <i name="e_wo_entrp">    -10.45777239 </i>
    <i name="e_0_energy">    -10.45777239 </i>
   </energy>
  </scstep>
  <scstep>
   <time name="total">   42.16   42.19</time>
   <energy>
    <i name="e_fr_energy">    -10.45984204 </i>
    <i name="e_wo_entrp">    -10.45984204 </i>
    <i name="e_0_energy">    -10.45984204 </i>
   </energy>
  </scstep>
  <scstep>
   <time name="total">   42.20   42.23</time>
   <energy>
    <i name="e_fr_energy">    -10.46089563 </i>
    <i name="e_wo_entrp">    -10.46089563 </i>
    <i name="e_0_energy">    -10.46089563 </i>
   </energy>
  </scstep>
  <scstep>
   <time name="total">   42.20   42.23</time>
   <energy>
    <i name="e_fr_energy">    -10.46139648 </i>
    <i name="e_wo_entrp">    -10.46139648 </i>
    <i name="e_0_energy">    -10.46139648 </i>
   </energy>
  </scstep>
  <scstep>
   <time name="total">   42.18   42.21</time>
   <energy>
    <i name="e_fr_energy">    -10.46163056 </i>
    <i name="e_wo_entrp">    -10.46163056 </i>
    <i name="e_0_energy">    -10.46163056 </i>
   </energy>
  </scstep>
  <scstep>
   <time name="total">   42.17   42.20</time>
   <energy>
    <i name="e_fr_energy">    -10.46173999 </i>
    <i name="e_wo_entrp">    -10.46173999 </i>
    <i name="e_0_energy">    -10.46173999 </i>
   </energy>
  </scstep>
  <scstep>
   <time name="total">   42.21   42.24</time>
   <energy>
    <i name="e_fr_energy">    -10.46179082 </i>
    <i name="e_wo_entrp">    -10.46179082 </i>
    <i name="e_0_energy">    -10.46179082 </i>
   </energy>
  </scstep>
  <scstep>
   <time name="total">   42.19   42.22</time>
   <energy>
    <i name="e_fr_energy">    -10.46181439 </i>
    <i name="e_wo_entrp">    -10.46181439 </i>
    <i name="e_0_energy">    -10.46181439 </i>
   </energy>
  </scstep>
  <scstep>
   <time name="total">   42.14   42.16</time>
   <energy>
    <i name="e_fr_energy">    -10.46182536 </i>
    <i name="e_wo_entrp">    -10.46182536 </i>
    <i name="e_0_energy">    -10.46182536 </i>
   </energy>
  </scstep>
  <scstep>
   <time name="total">   42.18   42.21</time>
   <energy>
    <i name="e_fr_energy">    -10.46183046 </i>
    <i name="e_wo_entrp">    -10.46183046 </i>
    <i name="e_0_energy">    -10.46183046 </i>
   </energy>
  </scstep>
  <scstep>
   <time name="total">   42.17   42.20</time>
   <energy>
    <i name="e_fr_energy">    -10.46183280 </i>
    <i name="e_wo_entrp">    -10.46183280 </i>
    <i name="e_0_energy">    -10.46183280 </i>
   </energy>
  </scstep>
  <scstep>
   <time name="total">   42.20   42.23</time>
   <energy>
    <i name="e_fr_energy">    -10.46183388 </i>
    <i name="e_wo_entrp">    -10.46183388 </i>
    <i name="e_0_energy">    -10.46183388 </i>
   </energy>
  </scstep>
  <scstep>
   <time name="total">   83.68   83.72</time>
   <energy>
    <i name="alphaZ">     18.92447533 </i>
    <i name="ewald">   -229.15493751 </i>
    <i name="hartreedc">    -21.09334966 </i>
    <i name="XCdc">    -24.69589350 </i>
    <i name="pawpsdc">    129.17100305 </i>
    <i name="pawaedc">    -92.93897745 </i>
    <i name="eentropy">     -0.00000000 </i>
    <i name="bandstr">    -27.06947951 </i>
    <i name="atom">    225.32280704 </i>
    <i name="e_fr_energy">    -10.46183438 </i>
    <i name="e_wo_entrp">    -10.46183438 </i>
    <i name="e_0_energy">    -10.46183438 </i>
   </energy>
  </scstep>
  <structure>
   <crystal>
    <varray name="basis" >
     <v>       0.00000000       2.82685000       2.82685000 </v>
     <v>       2.82685000       0.00000000       2.82685000 </v>
     <v>       2.82685000       2.82685000       0.00000000 </v>
    </varray>
    <i name="volume">     45.17917421 </i>
    <varray name="rec_basis" >
     <v>      -0.17687532       0.17687532       0.17687532 </v>
     <v>       0.17687532      -0.17687532       0.17687532 </v>
     <v>       0.17687532       0.17687532      -0.17687532 </v>
    </varray>
   </crystal>
   <varray name="positions" >
    <v>       0.25000000       0.25000000       0.25000000 </v>
    <v>       0.00000000       0.00000000       0.00000000 </v>
   </varray>
  </structure>
  <varray name="forces" >
   <v>      -0.00000000       0.00000000       0.00000000 </v>
   <v>       0.00000000      -0.00000000      -0.00000000 </v>
  </varray>
  <energy>
   <i name="e_fr_energy">    -10.46183438 </i>
   <i name="e_wo_entrp">    -10.46183438 </i>
   <i name="e_0_energy">     -0.00000000 </i>
  </energy>
  <time name="totalsc">  832.86  837.32</time>
  <eigenvalues>
   <array>
    <dimension dim="1">band</dimension>
    <dimension dim="2">kpoint</dimension>
    <dimension dim="3">spin</dimension>
    <field>eigene</field>
    <field>occ</field>
    <set>
     <set comment="spin 1">
      <set comment="kpoint 1">
       <r>  -11.5653    1.0000 </r>
       <r>    2.3183    1.0000 </r>
       <r>    2.3186    1.0000 </r>
       <r>    2.3186    1.0000 </r>
       <r>    3.8420    0.0000 </r>
       <r>    6.9188    0.0000 </r>
       <r>    6.9189    0.0000 </r>
       <r>    6.9189    0.0000 </r>
       <r>   10.9444    0.0000 </r>
       <r>   13.3106    0.0000 </r>
       <r>   13.3106    0.0000 </r>
       <r>   14.8946    0.0000 </r>
       <r>   14.8946    0.0000 </r>
       <r>   14.8946    0.0000 </r>
       <r>   17.8016    0.0000 </r>
       <r>   28.9554    0.0000 </r>
       <r>   28.9555    0.0000 </r>
       <r>   28.9555    0.0000 </r>
       <r>   29.5374    0.0000 </r>
       <r>   29.5378    0.0000 </r>
       <r>   29.5378    0.0000 </r>
       <r>   30.3350    0.0000 </r>
       <r>   30.3350    0.0000 </r>
       <r>   30.8730    0.0000 </r>
       <r>   30.8730    0.0000 </r>
       <r>   30.8735    0.0000 </r>
       <r>   38.7588    0.0000 </r>
       <r>   40.6188    0.0000 </r>
       <r>   40.6191    0.0000 </r>
       <r>   40.6191    0.0000 </r>
       <r>   42.4823    0.0000 </r>
       <r>   42.4823    0.0000 </r>
       <r>   44.1914    0.0000 </r>
       <r>   44.1916    0.0000 </r>
       <r>   44.1916    0.0000 </r>
       <r>   44.2514    0.0000 </r>
       <r>   44.2514    0.0000 </r>
       <r>   44.4747    0.0000 </r>
       <r>   44.4753    0.0000 </r>
       <r>   44.4753    0.0000 </r>
       <r>   44.5175    0.0000 </r>
       <r>   45.6142    0.0000 </r>
       <r>   45.6142    0.0000 </r>
       <r>   45.6149    0.0000 </r>
       <r>   46.5064    0.0000 </r>
       <r>   46.5065    0.0000 </r>
       <r>   46.5065    0.0000 </r>
       <r>   46.9718    0.0000 </r>
       <r>   46.9718    0.0000 </r>
       <r>   46.9720    0.0000 </r>
       <r>   50.2196    0.0000 </r>
       <r>   52.2244    0.0000 </r>
       <r>   52.2246    0.0000 </r>
       <r>   52.2246    0.0000 </r>
       <r>   52.7534    0.0000 </r>
       <r>   52.7534    0.0000 </r>
       <r>   52.7534    0.0000 </r>
       <r>   55.2680    0.0000 </r>
       <r>   58.4519    0.0000 </r>
       <r>   67.2609    0.0000 </r>
       <r>   67.2609    0.0000 </r>
       <r>   68.8027    0.0000 </r>
       <r>   68.8033    0.0000 </r>
       <r>   68.8033    0.0000 </r>
       <r>   70.9986    0.0000 </r>
       <r>   73.6994    0.0000 </r>
       <r>   73.7005    0.0000 </r>
       <r>   73.7005    0.0000 </r>
       <r>   75.1512    0.0000 </r>
       <r>   75.1512    0.0000 </r>
       <r>   75.1733    0.0000 </r>
       <r>   75.5591    0.0000 </r>
      </set>
      <set comment="kpoint 2">
       <r>  -11.5158    1.0000 </r>
       <r>    1.5984    1.0000 </r>
       <r>    2.2562    1.0000 </r>
       <r>    2.2564    1.0000 </r>
       <r>    4.3730    0.0000 </r>
       <r>    6.9882    0.0000 </r>
       <r>    7.0137    0.0000 </r>
       <r>    7.0137    0.0000 </r>
       <r>   11.2276    0.0000 </r>
       <r>   12.9570    0.0000 </r>
       <r>   12.9570    0.0000 </r>
       <r>   14.6253    0.0000 </r>
       <r>   15.4169    0.0000 </r>
       <r>   15.4169    0.0000 </r>
       <r>   18.2413    0.0000 </r>
       <r>   27.6292    0.0000 </r>
       <r>   27.7360    0.0000 </r>
       <r>   27.7361    0.0000 </r>
       <r>   29.6429    0.0000 </r>
       <r>   29.6434    0.0000 </r>
       <r>   30.0330    0.0000 </r>
       <r>   30.0334    0.0000 </r>
       <r>   30.6998    0.0000 </r>
       <r>   30.9177    0.0000 </r>
       <r>   32.4489    0.0000 </r>
       <r>   32.4489    0.0000 </r>
       <r>   38.5963    0.0000 </r>
       <r>   40.0053    0.0000 </r>
       <r>   40.2592    0.0000 </r>
       <r>   40.2593    0.0000 </r>
       <r>   41.4554    0.0000 </r>
       <r>   41.4557    0.0000 </r>
       <r>   43.0004    0.0000 </r>
       <r>   43.0005    0.0000 </r>
       <r>   43.6408    0.0000 </r>
       <r>   44.2645    0.0000 </r>
       <r>   44.2649    0.0000 </r>
       <r>   44.5068    0.0000 </r>
       <r>   44.5311    0.0000 </r>
       <r>   44.8749    0.0000 </r>
       <r>   44.8751    0.0000 </r>
       <r>   45.4688    0.0000 </r>
       <r>   45.9373    0.0000 </r>
       <r>   45.9376    0.0000 </r>
       <r>   46.5765    0.0000 </r>
       <r>   47.0570    0.0000 </r>
       <r>   47.0571    0.0000 </r>
       <r>   48.2100    0.0000 </r>
       <r>   48.5928    0.0000 </r>
       <r>   48.5930    0.0000 </r>
       <r>   49.5696    0.0000 </r>
       <r>   51.0683    0.0000 </r>
       <r>   51.5657    0.0000 </r>
       <r>   51.5658    0.0000 </r>
       <r>   53.6823    0.0000 </r>
       <r>   53.6824    0.0000 </r>
       <r>   54.0891    0.0000 </r>
       <r>   56.2802    0.0000 </r>
       <r>   58.9664    0.0000 </r>
       <r>   65.8077    0.0000 </r>
       <r>   65.8080    0.0000 </r>
       <r>   67.4347    0.0000 </r>
       <r>   70.1717    0.0000 </r>
       <r>   70.1723    0.0000 </r>
       <r>   72.1040    0.0000 </r>
       <r>   72.1049    0.0000 </r>
       <r>   72.2838    0.0000 </r>
       <r>   73.3159    0.0000 </r>
       <r>   74.5739    0.0000 </r>
       <r>   74.5922    0.0000 </r>
       <r>   75.1215    0.0000 </r>
       <r>   77.1441    0.0000 </r>
      </set>
      <set comment="kpoint 3">
       <r>  -11.3772    1.0000 </r>
       <r>    0.4266    1.0000 </r>
       <r>    2.0871    1.0000 </r>
       <r>    2.0873    1.0000 </r>
       <r>    4.8276    0.0000 </r>
       <r>    7.2690    0.0000 </r>
       <r>    7.2690    0.0000 </r>
       <r>    7.3836    0.0000 </r>
       <r>   11.9193    0.0000 </r>
       <r>   12.4472    0.0000 </r>
       <r>   12.4472    0.0000 </r>
       <r>   14.1862    0.0000 </r>
       <r>   16.4561    0.0000 </r>
       <r>   16.4561    0.0000 </r>
       <r>   19.2677    0.0000 </r>
       <r>   25.8658    0.0000 </r>
       <r>   25.8659    0.0000 </r>
       <r>   25.9667    0.0000 </r>
       <r>   29.7651    0.0000 </r>
       <r>   29.7657    0.0000 </r>
       <r>   30.0968    0.0000 </r>
       <r>   30.0972    0.0000 </r>
       <r>   31.0442    0.0000 </r>
       <r>   31.8586    0.0000 </r>
       <r>   34.5543    0.0000 </r>
       <r>   34.5545    0.0000 </r>
       <r>   37.1444    0.0000 </r>
       <r>   39.0385    0.0000 </r>
       <r>   39.0388    0.0000 </r>
       <r>   39.9068    0.0000 </r>
       <r>   39.9074    0.0000 </r>
       <r>   40.0563    0.0000 </r>
       <r>   41.5179    0.0000 </r>
       <r>   41.5180    0.0000 </r>
       <r>   42.8787    0.0000 </r>
       <r>   43.0401    0.0000 </r>
       <r>   43.9740    0.0000 </r>
       <r>   43.9745    0.0000 </r>
       <r>   44.4032    0.0000 </r>
       <r>   45.3224    0.0000 </r>
       <r>   45.3227    0.0000 </r>
       <r>   45.4155    0.0000 </r>
       <r>   47.0606    0.0000 </r>
       <r>   47.0607    0.0000 </r>
       <r>   47.5851    0.0000 </r>
       <r>   48.1742    0.0000 </r>
       <r>   48.2906    0.0000 </r>
       <r>   48.2908    0.0000 </r>
       <r>   50.0381    0.0000 </r>
       <r>   50.5374    0.0000 </r>
       <r>   50.5375    0.0000 </r>
       <r>   51.4662    0.0000 </r>
       <r>   51.7371    0.0000 </r>
       <r>   51.7373    0.0000 </r>
       <r>   54.9387    0.0000 </r>
       <r>   55.0243    0.0000 </r>
       <r>   55.0243    0.0000 </r>
       <r>   58.2835    0.0000 </r>
       <r>   60.6631    0.0000 </r>
       <r>   63.8596    0.0000 </r>
       <r>   63.8599    0.0000 </r>
       <r>   65.4350    0.0000 </r>
       <r>   68.9127    0.0000 </r>
       <r>   68.9138    0.0000 </r>
       <r>   71.4877    0.0000 </r>
       <r>   72.4538    0.0000 </r>
       <r>   72.4575    0.0000 </r>
       <r>   73.8956    0.0000 </r>
       <r>   73.9066    0.0000 </r>
       <r>   74.7477    0.0000 </r>
       <r>   74.9117    0.0000 </r>
       <r>   75.5894    0.0000 </r>
      </set>
      <set comment="kpoint 4">
       <r>  -11.1565    1.0000 </r>
       <r>   -0.8033    1.0000 </r>
       <r>    1.8566    1.0000 </r>
       <r>    1.8568    1.0000 </r>
       <r>    4.8350    0.0000 </r>
       <r>    7.5827    0.0000 </r>
       <r>    7.5827    0.0000 </r>
       <r>    8.2178    0.0000 </r>
       <r>   12.1563    0.0000 </r>
       <r>   12.1563    0.0000 </r>
       <r>   12.4238    0.0000 </r>
       <r>   14.3063    0.0000 </r>
       <r>   17.7039    0.0000 </r>
       <r>   17.7039    0.0000 </r>
       <r>   20.5809    0.0000 </r>
       <r>   24.0035    0.0000 </r>
       <r>   24.0036    0.0000 </r>
       <r>   24.2832    0.0000 </r>
       <r>   29.9296    0.0000 </r>
       <r>   29.9303    0.0000 </r>
       <r>   30.2791    0.0000 </r>
       <r>   30.2794    0.0000 </r>
       <r>   31.2505    0.0000 </r>
       <r>   32.7552    0.0000 </r>
       <r>   35.0523    0.0000 </r>
       <r>   36.2222    0.0000 </r>
       <r>   36.2227    0.0000 </r>
       <r>   37.4104    0.0000 </r>
       <r>   37.4106    0.0000 </r>
       <r>   38.8669    0.0000 </r>
       <r>   38.8673    0.0000 </r>
       <r>   40.3445    0.0000 </r>
       <r>   40.3445    0.0000 </r>
       <r>   40.4269    0.0000 </r>
       <r>   41.6697    0.0000 </r>
       <r>   41.7171    0.0000 </r>
       <r>   43.7309    0.0000 </r>
       <r>   43.7314    0.0000 </r>
       <r>   44.0306    0.0000 </r>
       <r>   45.0128    0.0000 </r>
       <r>   45.5544    0.0000 </r>
       <r>   45.5549    0.0000 </r>
       <r>   46.5978    0.0000 </r>
       <r>   48.4193    0.0000 </r>
       <r>   48.4198    0.0000 </r>
       <r>   49.6551    0.0000 </r>
       <r>   49.6555    0.0000 </r>
       <r>   49.9887    0.0000 </r>
       <r>   50.8487    0.0000 </r>
       <r>   50.8488    0.0000 </r>
       <r>   52.0233    0.0000 </r>
       <r>   52.1883    0.0000 </r>
       <r>   54.4330    0.0000 </r>
       <r>   54.4332    0.0000 </r>
       <r>   56.1244    0.0000 </r>
       <r>   56.5571    0.0000 </r>
       <r>   56.5571    0.0000 </r>
       <r>   59.9793    0.0000 </r>
       <r>   61.9761    0.0000 </r>
       <r>   61.9764    0.0000 </r>
       <r>   62.9756    0.0000 </r>
       <r>   63.9473    0.0000 </r>
       <r>   66.0840    0.0000 </r>
       <r>   66.0840    0.0000 </r>
       <r>   69.4798    0.0000 </r>
       <r>   71.2203    0.0000 </r>
       <r>   71.2214    0.0000 </r>
       <r>   73.6148    0.0000 </r>
       <r>   73.6269    0.0000 </r>
       <r>   74.5039    0.0000 </r>
       <r>   74.9294    0.0000 </r>
       <r>   75.6196    0.0000 </r>
      </set>
      <set comment="kpoint 5">
       <r>  -10.8529    1.0000 </r>
       <r>   -2.0417    1.0000 </r>
       <r>    1.6125    1.0000 </r>
       <r>    1.6126    1.0000 </r>
       <r>    4.6529    0.0000 </r>
       <r>    7.8213    0.0000 </r>
       <r>    7.8213    0.0000 </r>
       <r>    9.3021    0.0000 </r>
       <r>   12.2255    0.0000 </r>
       <r>   12.2255    0.0000 </r>
       <r>   12.2804    0.0000 </r>
       <r>   15.4085    0.0000 </r>
       <r>   19.0888    0.0000 </r>
       <r>   19.0888    0.0000 </r>
       <r>   21.9435    0.0000 </r>
       <r>   22.2174    0.0000 </r>
       <r>   22.2174    0.0000 </r>
       <r>   22.7935    0.0000 </r>
       <r>   30.1234    0.0000 </r>
       <r>   30.1241    0.0000 </r>
       <r>   30.5262    0.0000 </r>
       <r>   30.5266    0.0000 </r>
       <r>   31.5213    0.0000 </r>
       <r>   32.6581    0.0000 </r>
       <r>   33.6226    0.0000 </r>
       <r>   34.5014    0.0000 </r>
       <r>   34.5015    0.0000 </r>
       <r>   37.9150    0.0000 </r>
       <r>   37.9150    0.0000 </r>
       <r>   38.2788    0.0000 </r>
       <r>   38.2791    0.0000 </r>
       <r>   39.3452    0.0000 </r>
       <r>   40.2372    0.0000 </r>
       <r>   40.2372    0.0000 </r>
       <r>   40.4356    0.0000 </r>
       <r>   40.8607    0.0000 </r>
       <r>   43.5563    0.0000 </r>
       <r>   43.5569    0.0000 </r>
       <r>   43.9122    0.0000 </r>
       <r>   45.0787    0.0000 </r>
       <r>   45.5928    0.0000 </r>
       <r>   45.5932    0.0000 </r>
       <r>   46.3832    0.0000 </r>
       <r>   49.5801    0.0000 </r>
       <r>   49.5806    0.0000 </r>
       <r>   50.6915    0.0000 </r>
       <r>   50.6917    0.0000 </r>
       <r>   51.3838    0.0000 </r>
       <r>   52.1951    0.0000 </r>
       <r>   52.1952    0.0000 </r>
       <r>   53.4594    0.0000 </r>
       <r>   54.1315    0.0000 </r>
       <r>   57.4101    0.0000 </r>
       <r>   57.4105    0.0000 </r>
       <r>   57.6364    0.0000 </r>
       <r>   58.2636    0.0000 </r>
       <r>   58.2640    0.0000 </r>
       <r>   60.2468    0.0000 </r>
       <r>   60.2473    0.0000 </r>
       <r>   61.0066    0.0000 </r>
       <r>   62.1220    0.0000 </r>
       <r>   63.2181    0.0000 </r>
       <r>   63.2187    0.0000 </r>
       <r>   66.6164    0.0000 </r>
       <r>   67.5520    0.0000 </r>
       <r>   68.6478    0.0000 </r>
       <r>   68.6481    0.0000 </r>
       <r>   71.9014    0.0000 </r>
       <r>   71.9063    0.0000 </r>
       <r>   73.0595    0.0000 </r>
       <r>   73.5101    0.0000 </r>
       <r>   75.2454    0.0000 </r>
      </set>
      <set comment="kpoint 6">
       <r>  -10.4900    1.0000 </r>
       <r>   -3.1382    1.0000 </r>
       <r>    1.4008    1.0000 </r>
       <r>    1.4010    1.0000 </r>
       <r>    4.4512    0.0000 </r>
       <r>    7.9006    0.0000 </r>
       <r>    7.9007    0.0000 </r>
       <r>   10.3822    0.0000 </r>
       <r>   12.0772    0.0000 </r>
       <r>   12.6946    0.0000 </r>
       <r>   12.6946    0.0000 </r>
       <r>   16.7715    0.0000 </r>
       <r>   20.1718    0.0000 </r>
       <r>   20.1718    0.0000 </r>
       <r>   20.9423    0.0000 </r>
       <r>   20.9424    0.0000 </r>
       <r>   21.1549    0.0000 </r>
       <r>   23.8450    0.0000 </r>
       <r>   30.2537    0.0000 </r>
       <r>   30.2544    0.0000 </r>
       <r>   30.5191    0.0000 </r>
       <r>   30.7862    0.0000 </r>
       <r>   30.7866    0.0000 </r>
       <r>   31.8345    0.0000 </r>
       <r>   32.4808    0.0000 </r>
       <r>   32.4809    0.0000 </r>
       <r>   33.9491    0.0000 </r>
       <r>   37.1139    0.0000 </r>
       <r>   37.1139    0.0000 </r>
       <r>   37.4505    0.0000 </r>
       <r>   37.7016    0.0000 </r>
       <r>   37.7017    0.0000 </r>
       <r>   39.3674    0.0000 </r>
       <r>   40.1421    0.0000 </r>
       <r>   42.1913    0.0000 </r>
       <r>   42.1916    0.0000 </r>
       <r>   43.4620    0.0000 </r>
       <r>   43.4626    0.0000 </r>
       <r>   43.6663    0.0000 </r>
       <r>   45.5201    0.0000 </r>
       <r>   45.5206    0.0000 </r>
       <r>   45.9721    0.0000 </r>
       <r>   46.6820    0.0000 </r>
       <r>   50.3719    0.0000 </r>
       <r>   50.3719    0.0000 </r>
       <r>   52.0927    0.0000 </r>
       <r>   52.0932    0.0000 </r>
       <r>   52.3897    0.0000 </r>
       <r>   54.0932    0.0000 </r>
       <r>   54.0934    0.0000 </r>
       <r>   55.0459    0.0000 </r>
       <r>   56.3554    0.0000 </r>
       <r>   58.3202    0.0000 </r>
       <r>   58.3204    0.0000 </r>
       <r>   58.8616    0.0000 </r>
       <r>   59.5878    0.0000 </r>
       <r>   59.5889    0.0000 </r>
       <r>   60.1782    0.0000 </r>
       <r>   60.5950    0.0000 </r>
       <r>   60.5958    0.0000 </r>
       <r>   61.2342    0.0000 </r>
       <r>   61.2354    0.0000 </r>
       <r>   63.1571    0.0000 </r>
       <r>   65.6703    0.0000 </r>
       <r>   66.1338    0.0000 </r>
       <r>   66.1341    0.0000 </r>
       <r>   69.4172    0.0000 </r>
       <r>   69.4192    0.0000 </r>
       <r>   70.0923    0.0000 </r>
       <r>   71.1589    0.0000 </r>
       <r>   71.4923    0.0000 </r>
       <r>   73.8974    0.0000 </r>
      </set>
      <set comment="kpoint 7">
       <r>  -10.1314    1.0000 </r>
       <r>   -4.0018    1.0000 </r>
       <r>    1.2440    1.0000 </r>
       <r>    1.2442    1.0000 </r>
       <r>    4.2934    0.0000 </r>
       <r>    7.8755    0.0000 </r>
       <r>    7.8755    0.0000 </r>
       <r>   10.9865    0.0000 </r>
       <r>   12.4055    0.0000 </r>
       <r>   13.4905    0.0000 </r>
       <r>   13.4905    0.0000 </r>
       <r>   17.4614    0.0000 </r>
       <r>   18.8084    0.0000 </r>
       <r>   18.8084    0.0000 </r>
       <r>   20.7254    0.0000 </r>
       <r>   22.3293    0.0000 </r>
       <r>   22.3294    0.0000 </r>
       <r>   25.5599    0.0000 </r>
       <r>   28.3930    0.0000 </r>
       <r>   29.5740    0.0000 </r>
       <r>   29.5742    0.0000 </r>
       <r>   30.9210    0.0000 </r>
       <r>   30.9216    0.0000 </r>
       <r>   31.4548    0.0000 </r>
       <r>   31.4551    0.0000 </r>
       <r>   32.1473    0.0000 </r>
       <r>   33.4618    0.0000 </r>
       <r>   36.2900    0.0000 </r>
       <r>   36.4642    0.0000 </r>
       <r>   36.4643    0.0000 </r>
       <r>   36.9672    0.0000 </r>
       <r>   36.9673    0.0000 </r>
       <r>   38.5144    0.0000 </r>
       <r>   39.3352    0.0000 </r>
       <r>   43.3757    0.0000 </r>
       <r>   43.3761    0.0000 </r>
       <r>   43.4622    0.0000 </r>
       <r>   44.2117    0.0000 </r>
       <r>   44.2119    0.0000 </r>
       <r>   45.7936    0.0000 </r>
       <r>   45.7939    0.0000 </r>
       <r>   46.0592    0.0000 </r>
       <r>   48.2791    0.0000 </r>
       <r>   51.1267    0.0000 </r>
       <r>   51.1268    0.0000 </r>
       <r>   53.3544    0.0000 </r>
       <r>   53.5063    0.0000 </r>
       <r>   53.5077    0.0000 </r>
       <r>   55.6362    0.0000 </r>
       <r>   56.0123    0.0000 </r>
       <r>   56.0129    0.0000 </r>
       <r>   56.7476    0.0000 </r>
       <r>   56.7478    0.0000 </r>
       <r>   57.9308    0.0000 </r>
       <r>   57.9321    0.0000 </r>
       <r>   58.6793    0.0000 </r>
       <r>   58.7184    0.0000 </r>
       <r>   61.3638    0.0000 </r>
       <r>   62.0059    0.0000 </r>
       <r>   62.0059    0.0000 </r>
       <r>   62.5425    0.0000 </r>
       <r>   63.6858    0.0000 </r>
       <r>   63.6869    0.0000 </r>
       <r>   64.5082    0.0000 </r>
       <r>   64.5083    0.0000 </r>
       <r>   66.5268    0.0000 </r>
       <r>   66.8833    0.0000 </r>
       <r>   66.8843    0.0000 </r>
       <r>   68.9403    0.0000 </r>
       <r>   69.2568    0.0000 </r>
       <r>   71.0174    0.0000 </r>
       <r>   71.5377    0.0000 </r>
      </set>
      <set comment="kpoint 8">
       <r>   -9.8487    1.0000 </r>
       <r>   -4.5991    1.0000 </r>
       <r>    1.1463    1.0000 </r>
       <r>    1.1464    1.0000 </r>
       <r>    4.1918    0.0000 </r>
       <r>    7.8301    0.0000 </r>
       <r>    7.8302    0.0000 </r>
       <r>   11.0349    0.0000 </r>
       <r>   13.3383    0.0000 </r>
       <r>   14.5105    0.0000 </r>
       <r>   14.5105    0.0000 </r>
       <r>   16.8289    0.0000 </r>
       <r>   17.3566    0.0000 </r>
       <r>   17.3566    0.0000 </r>
       <r>   21.8507    0.0000 </r>
       <r>   24.0415    0.0000 </r>
       <r>   24.0416    0.0000 </r>
       <r>   26.0029    0.0000 </r>
       <r>   27.7478    0.0000 </r>
       <r>   27.7883    0.0000 </r>
       <r>   27.7883    0.0000 </r>
       <r>   31.0323    0.0000 </r>
       <r>   31.0330    0.0000 </r>
       <r>   31.5244    0.0000 </r>
       <r>   31.5247    0.0000 </r>
       <r>   31.7916    0.0000 </r>
       <r>   32.3923    0.0000 </r>
       <r>   36.0420    0.0000 </r>
       <r>   36.0422    0.0000 </r>
       <r>   36.3167    0.0000 </r>
       <r>   36.4314    0.0000 </r>
       <r>   36.4316    0.0000 </r>
       <r>   37.9456    0.0000 </r>
       <r>   38.6335    0.0000 </r>
       <r>   43.3474    0.0000 </r>
       <r>   43.3834    0.0000 </r>
       <r>   43.3838    0.0000 </r>
       <r>   44.6702    0.0000 </r>
       <r>   44.6703    0.0000 </r>
       <r>   46.0110    0.0000 </r>
       <r>   47.6662    0.0000 </r>
       <r>   47.6670    0.0000 </r>
       <r>   50.1561    0.0000 </r>
       <r>   51.5697    0.0000 </r>
       <r>   51.5698    0.0000 </r>
       <r>   53.7141    0.0000 </r>
       <r>   53.7151    0.0000 </r>
       <r>   53.9189    0.0000 </r>
       <r>   54.8205    0.0000 </r>
       <r>   55.4275    0.0000 </r>
       <r>   55.4279    0.0000 </r>
       <r>   56.7607    0.0000 </r>
       <r>   56.7620    0.0000 </r>
       <r>   58.2688    0.0000 </r>
       <r>   58.2690    0.0000 </r>
       <r>   59.2843    0.0000 </r>
       <r>   61.1009    0.0000 </r>
       <r>   61.1778    0.0000 </r>
       <r>   61.7216    0.0000 </r>
       <r>   61.7227    0.0000 </r>
       <r>   63.3494    0.0000 </r>
       <r>   63.9402    0.0000 </r>
       <r>   63.9408    0.0000 </r>
       <r>   64.6497    0.0000 </r>
       <r>   64.6501    0.0000 </r>
       <r>   66.2821    0.0000 </r>
       <r>   67.3531    0.0000 </r>
       <r>   67.8658    0.0000 </r>
       <r>   67.8668    0.0000 </r>
       <r>   69.0297    0.0000 </r>
       <r>   69.1047    0.0000 </r>
       <r>   69.3436    0.0000 </r>
      </set>
      <set comment="kpoint 9">
       <r>   -9.7359    1.0000 </r>
       <r>   -4.8268    1.0000 </r>
       <r>    1.1128    1.0000 </r>
       <r>    1.1129    1.0000 </r>
       <r>    4.1554    0.0000 </r>
       <r>    7.8125    0.0000 </r>
       <r>    7.8125    0.0000 </r>
       <r>   11.0148    0.0000 </r>
       <r>   13.9555    0.0000 </r>
       <r>   15.3590    0.0000 </r>
       <r>   15.3590    0.0000 </r>
       <r>   16.2298    0.0000 </r>
       <r>   16.3711    0.0000 </r>
       <r>   16.3711    0.0000 </r>
       <r>   23.0645    0.0000 </r>
       <r>   24.6977    0.0000 </r>
       <r>   25.7002    0.0000 </r>
       <r>   25.7002    0.0000 </r>
       <r>   26.0676    0.0000 </r>
       <r>   26.0676    0.0000 </r>
       <r>   29.1707    0.0000 </r>
       <r>   30.2473    0.0000 </r>
       <r>   31.0929    0.0000 </r>
       <r>   31.0936    0.0000 </r>
       <r>   31.5963    0.0000 </r>
       <r>   31.5967    0.0000 </r>
       <r>   32.4912    0.0000 </r>
       <r>   35.9016    0.0000 </r>
       <r>   35.9018    0.0000 </r>
       <r>   36.2333    0.0000 </r>
       <r>   36.2335    0.0000 </r>
       <r>   36.4931    0.0000 </r>
       <r>   37.7448    0.0000 </r>
       <r>   38.3136    0.0000 </r>
       <r>   43.3120    0.0000 </r>
       <r>   43.3896    0.0000 </r>
       <r>   43.3901    0.0000 </r>
       <r>   44.6751    0.0000 </r>
       <r>   44.6753    0.0000 </r>
       <r>   45.9941    0.0000 </r>
       <r>   49.5726    0.0000 </r>
       <r>   49.5754    0.0000 </r>
       <r>   50.6648    0.0000 </r>
       <r>   50.6664    0.0000 </r>
       <r>   51.5269    0.0000 </r>
       <r>   52.9946    0.0000 </r>
       <r>   53.5724    0.0000 </r>
       <r>   53.5727    0.0000 </r>
       <r>   54.7854    0.0000 </r>
       <r>   54.7855    0.0000 </r>
       <r>   54.9996    0.0000 </r>
       <r>   57.3944    0.0000 </r>
       <r>   57.3947    0.0000 </r>
       <r>   59.0178    0.0000 </r>
       <r>   59.0187    0.0000 </r>
       <r>   59.1755    0.0000 </r>
       <r>   61.1530    0.0000 </r>
       <r>   61.1540    0.0000 </r>
       <r>   61.3055    0.0000 </r>
       <r>   62.8815    0.0000 </r>
       <r>   62.8822    0.0000 </r>
       <r>   63.3424    0.0000 </r>
       <r>   63.9709    0.0000 </r>
       <r>   64.0479    0.0000 </r>
       <r>   66.1257    0.0000 </r>
       <r>   66.1258    0.0000 </r>
       <r>   66.9938    0.0000 </r>
       <r>   66.9940    0.0000 </r>
       <r>   67.2867    0.0000 </r>
       <r>   67.9741    0.0000 </r>
       <r>   70.7261    0.0000 </r>
       <r>   71.5386    0.0000 </r>
      </set>
      <set comment="kpoint 10">
       <r>  -11.4993    1.0000 </r>
       <r>    1.5717    1.0000 </r>
       <r>    2.1257    1.0000 </r>
       <r>    2.1258    1.0000 </r>
       <r>    4.5916    0.0000 </r>
       <r>    6.6864    0.0000 </r>
       <r>    7.1950    0.0000 </r>
       <r>    7.1950    0.0000 </r>
       <r>   11.3119    0.0000 </r>
       <r>   12.4396    0.0000 </r>
       <r>   13.3731    0.0000 </r>
       <r>   15.0242    0.0000 </r>
       <r>   15.0242    0.0000 </r>
       <r>   15.4827    0.0000 </r>
       <r>   18.4382    0.0000 </r>
       <r>   27.3268    0.0000 </r>
       <r>   27.3268    0.0000 </r>
       <r>   28.4551    0.0000 </r>
       <r>   28.5434    0.0000 </r>
       <r>   29.0183    0.0000 </r>
       <r>   30.1729    0.0000 </r>
       <r>   30.1734    0.0000 </r>
       <r>   31.1702    0.0000 </r>
       <r>   32.0356    0.0000 </r>
       <r>   32.0357    0.0000 </r>
       <r>   32.7746    0.0000 </r>
       <r>   38.6358    0.0000 </r>
       <r>   39.6799    0.0000 </r>
       <r>   39.6799    0.0000 </r>
       <r>   40.5147    0.0000 </r>
       <r>   40.7237    0.0000 </r>
       <r>   42.2381    0.0000 </r>
       <r>   42.3648    0.0000 </r>
       <r>   43.4143    0.0000 </r>
       <r>   43.4146    0.0000 </r>
       <r>   43.8287    0.0000 </r>
       <r>   44.0852    0.0000 </r>
       <r>   44.0854    0.0000 </r>
       <r>   44.2950    0.0000 </r>
       <r>   44.7458    0.0000 </r>
       <r>   45.4637    0.0000 </r>
       <r>   45.4641    0.0000 </r>
       <r>   46.1454    0.0000 </r>
       <r>   46.3314    0.0000 </r>
       <r>   46.9995    0.0000 </r>
       <r>   46.9996    0.0000 </r>
       <r>   47.4576    0.0000 </r>
       <r>   47.9717    0.0000 </r>
       <r>   48.9518    0.0000 </r>
       <r>   48.9519    0.0000 </r>
       <r>   50.0791    0.0000 </r>
       <r>   50.5924    0.0000 </r>
       <r>   50.5925    0.0000 </r>
       <r>   51.8459    0.0000 </r>
       <r>   53.0727    0.0000 </r>
       <r>   54.7698    0.0000 </r>
       <r>   54.7699    0.0000 </r>
       <r>   56.2958    0.0000 </r>
       <r>   59.0762    0.0000 </r>
       <r>   64.1153    0.0000 </r>
       <r>   67.3059    0.0000 </r>
       <r>   68.7620    0.0000 </r>
       <r>   68.7624    0.0000 </r>
       <r>   69.5644    0.0000 </r>
       <r>   71.9248    0.0000 </r>
       <r>   71.9274    0.0000 </r>
       <r>   72.3906    0.0000 </r>
       <r>   73.0733    0.0000 </r>
       <r>   73.9808    0.0000 </r>
       <r>   75.2581    0.0000 </r>
       <r>   76.0762    0.0000 </r>
       <r>   76.0859    0.0000 </r>
      </set>
      <set comment="kpoint 11">
       <r>  -11.3905    1.0000 </r>
       <r>    0.6764    1.0000 </r>
       <r>    1.9082    1.0000 </r>
       <r>    2.0102    1.0000 </r>
       <r>    5.0905    0.0000 </r>
       <r>    6.6183    0.0000 </r>
       <r>    7.5158    0.0000 </r>
       <r>    7.5727    0.0000 </r>
       <r>   11.7408    0.0000 </r>
       <r>   11.9884    0.0000 </r>
       <r>   13.1336    0.0000 </r>
       <r>   14.6960    0.0000 </r>
       <r>   15.6417    0.0000 </r>
       <r>   16.3710    0.0000 </r>
       <r>   19.3252    0.0000 </r>
       <r>   25.7772    0.0000 </r>
       <r>   25.8704    0.0000 </r>
       <r>   27.6000    0.0000 </r>
       <r>   28.1959    0.0000 </r>
       <r>   28.5108    0.0000 </r>
       <r>   30.3203    0.0000 </r>
       <r>   30.6812    0.0000 </r>
       <r>   31.9118    0.0000 </r>
       <r>   32.4057    0.0000 </r>
       <r>   33.5456    0.0000 </r>
       <r>   34.5960    0.0000 </r>
       <r>   37.5429    0.0000 </r>
       <r>   38.7044    0.0000 </r>
       <r>   38.9365    0.0000 </r>
       <r>   39.4007    0.0000 </r>
       <r>   40.5745    0.0000 </r>
       <r>   40.8126    0.0000 </r>
       <r>   40.9711    0.0000 </r>
       <r>   42.3037    0.0000 </r>
       <r>   42.7189    0.0000 </r>
       <r>   43.2920    0.0000 </r>
       <r>   43.4824    0.0000 </r>
       <r>   44.3609    0.0000 </r>
       <r>   44.7798    0.0000 </r>
       <r>   45.0982    0.0000 </r>
       <r>   45.2987    0.0000 </r>
       <r>   45.8604    0.0000 </r>
       <r>   46.2577    0.0000 </r>
       <r>   47.2829    0.0000 </r>
       <r>   47.5812    0.0000 </r>
       <r>   47.7551    0.0000 </r>
       <r>   48.3983    0.0000 </r>
       <r>   49.1237    0.0000 </r>
       <r>   49.3889    0.0000 </r>
       <r>   50.0571    0.0000 </r>
       <r>   50.2554    0.0000 </r>
       <r>   50.6671    0.0000 </r>
       <r>   51.4900    0.0000 </r>
       <r>   52.2593    0.0000 </r>
       <r>   53.6626    0.0000 </r>
       <r>   55.5769    0.0000 </r>
       <r>   56.0777    0.0000 </r>
       <r>   58.0524    0.0000 </r>
       <r>   60.1862    0.0000 </r>
       <r>   62.1398    0.0000 </r>
       <r>   65.8760    0.0000 </r>
       <r>   67.0706    0.0000 </r>
       <r>   68.8326    0.0000 </r>
       <r>   69.7726    0.0000 </r>
       <r>   70.7353    0.0000 </r>
       <r>   71.5257    0.0000 </r>
       <r>   72.0909    0.0000 </r>
       <r>   72.6025    0.0000 </r>
       <r>   74.1305    0.0000 </r>
       <r>   74.7296    0.0000 </r>
       <r>   75.4291    0.0000 </r>
       <r>   75.9177    0.0000 </r>
      </set>
      <set comment="kpoint 12">
       <r>  -11.1965    1.0000 </r>
       <r>   -0.4752    1.0000 </r>
       <r>    1.6529    1.0000 </r>
       <r>    1.8331    1.0000 </r>
       <r>    5.2255    0.0000 </r>
       <r>    6.8782    0.0000 </r>
       <r>    7.8789    0.0000 </r>
       <r>    8.1890    0.0000 </r>
       <r>   11.4704    0.0000 </r>
       <r>   12.6193    0.0000 </r>
       <r>   12.8185    0.0000 </r>
       <r>   14.4431    0.0000 </r>
       <r>   16.7507    0.0000 </r>
       <r>   17.6087    0.0000 </r>
       <r>   20.5452    0.0000 </r>
       <r>   23.9291    0.0000 </r>
       <r>   24.1270    0.0000 </r>
       <r>   25.9908    0.0000 </r>
       <r>   28.2884    0.0000 </r>
       <r>   28.5504    0.0000 </r>
       <r>   30.5117    0.0000 </r>
       <r>   30.9085    0.0000 </r>
       <r>   32.5913    0.0000 </r>
       <r>   32.9932    0.0000 </r>
       <r>   35.0504    0.0000 </r>
       <r>   35.7828    0.0000 </r>
       <r>   36.5933    0.0000 </r>
       <r>   37.2011    0.0000 </r>
       <r>   37.6340    0.0000 </r>
       <r>   38.7544    0.0000 </r>
       <r>   38.8400    0.0000 </r>
       <r>   39.5148    0.0000 </r>
       <r>   41.0010    0.0000 </r>
       <r>   41.0690    0.0000 </r>
       <r>   42.0921    0.0000 </r>
       <r>   42.5876    0.0000 </r>
       <r>   42.8229    0.0000 </r>
       <r>   43.9819    0.0000 </r>
       <r>   44.6156    0.0000 </r>
       <r>   45.1331    0.0000 </r>
       <r>   45.1812    0.0000 </r>
       <r>   46.2486    0.0000 </r>
       <r>   47.1290    0.0000 </r>
       <r>   47.2905    0.0000 </r>
       <r>   48.1633    0.0000 </r>
       <r>   48.7228    0.0000 </r>
       <r>   49.3243    0.0000 </r>
       <r>   49.7871    0.0000 </r>
       <r>   50.1600    0.0000 </r>
       <r>   50.8935    0.0000 </r>
       <r>   52.1259    0.0000 </r>
       <r>   52.8948    0.0000 </r>
       <r>   53.1300    0.0000 </r>
       <r>   53.9549    0.0000 </r>
       <r>   54.7163    0.0000 </r>
       <r>   56.5652    0.0000 </r>
       <r>   57.5531    0.0000 </r>
       <r>   59.8267    0.0000 </r>
       <r>   60.2811    0.0000 </r>
       <r>   62.5706    0.0000 </r>
       <r>   63.9727    0.0000 </r>
       <r>   65.0589    0.0000 </r>
       <r>   66.2504    0.0000 </r>
       <r>   67.3609    0.0000 </r>
       <r>   70.5128    0.0000 </r>
       <r>   70.7373    0.0000 </r>
       <r>   71.9739    0.0000 </r>
       <r>   72.3173    0.0000 </r>
       <r>   73.3534    0.0000 </r>
       <r>   73.7021    0.0000 </r>
       <r>   74.5582    0.0000 </r>
       <r>   75.3575    0.0000 </r>
      </set>
      <set comment="kpoint 13">
       <r>  -10.9194    1.0000 </r>
       <r>   -1.6774    1.0000 </r>
       <r>    1.4069    1.0000 </r>
       <r>    1.5820    1.0000 </r>
       <r>    5.0878    0.0000 </r>
       <r>    7.2754    0.0000 </r>
       <r>    8.1582    0.0000 </r>
       <r>    8.9390    0.0000 </r>
       <r>   11.5185    0.0000 </r>
       <r>   12.7869    0.0000 </r>
       <r>   12.7959    0.0000 </r>
       <r>   15.1000    0.0000 </r>
       <r>   18.0596    0.0000 </r>
       <r>   19.0088    0.0000 </r>
       <r>   21.9010    0.0000 </r>
       <r>   22.1190    0.0000 </r>
       <r>   22.4451    0.0000 </r>
       <r>   24.3228    0.0000 </r>
       <r>   28.4871    0.0000 </r>
       <r>   28.7509    0.0000 </r>
       <r>   30.7620    0.0000 </r>
       <r>   31.0800    0.0000 </r>
       <r>   32.8131    0.0000 </r>
       <r>   33.1757    0.0000 </r>
       <r>   33.8371    0.0000 </r>
       <r>   34.9004    0.0000 </r>
       <r>   35.8315    0.0000 </r>
       <r>   36.8507    0.0000 </r>
       <r>   37.0034    0.0000 </r>
       <r>   38.4344    0.0000 </r>
       <r>   38.7867    0.0000 </r>
       <r>   38.8575    0.0000 </r>
       <r>   40.2415    0.0000 </r>
       <r>   40.6102    0.0000 </r>
       <r>   41.1922    0.0000 </r>
       <r>   41.9584    0.0000 </r>
       <r>   42.0513    0.0000 </r>
       <r>   44.0364    0.0000 </r>
       <r>   44.1986    0.0000 </r>
       <r>   44.9320    0.0000 </r>
       <r>   45.3047    0.0000 </r>
       <r>   46.0629    0.0000 </r>
       <r>   47.9416    0.0000 </r>
       <r>   48.2270    0.0000 </r>
       <r>   48.5955    0.0000 </r>
       <r>   49.9321    0.0000 </r>
       <r>   49.9718    0.0000 </r>
       <r>   50.9250    0.0000 </r>
       <r>   51.8156    0.0000 </r>
       <r>   52.5265    0.0000 </r>
       <r>   53.8899    0.0000 </r>
       <r>   54.1821    0.0000 </r>
       <r>   55.5799    0.0000 </r>
       <r>   55.8539    0.0000 </r>
       <r>   57.2550    0.0000 </r>
       <r>   58.0593    0.0000 </r>
       <r>   58.5055    0.0000 </r>
       <r>   59.1467    0.0000 </r>
       <r>   61.5419    0.0000 </r>
       <r>   62.1087    0.0000 </r>
       <r>   62.9798    0.0000 </r>
       <r>   63.5135    0.0000 </r>
       <r>   64.6540    0.0000 </r>
       <r>   65.8067    0.0000 </r>
       <r>   68.3927    0.0000 </r>
       <r>   68.3986    0.0000 </r>
       <r>   69.9701    0.0000 </r>
       <r>   71.1998    0.0000 </r>
       <r>   71.7029    0.0000 </r>
       <r>   74.2444    0.0000 </r>
       <r>   74.4896    0.0000 </r>
       <r>   74.7537    0.0000 </r>
      </set>
      <set comment="kpoint 14">
       <r>  -10.5739    1.0000 </r>
       <r>   -2.8007    1.0000 </r>
       <r>    1.2108    1.0000 </r>
       <r>    1.3096    1.0000 </r>
       <r>    4.8893    0.0000 </r>
       <r>    7.5371    0.0000 </r>
       <r>    8.2563    0.0000 </r>
       <r>    9.7503    0.0000 </r>
       <r>   11.9639    0.0000 </r>
       <r>   12.6584    0.0000 </r>
       <r>   13.1629    0.0000 </r>
       <r>   16.3679    0.0000 </r>
       <r>   19.4224    0.0000 </r>
       <r>   20.4253    0.0000 </r>
       <r>   20.4806    0.0000 </r>
       <r>   20.9066    0.0000 </r>
       <r>   22.5018    0.0000 </r>
       <r>   23.7437    0.0000 </r>
       <r>   28.7333    0.0000 </r>
       <r>   29.0091    0.0000 </r>
       <r>   30.7260    0.0000 </r>
       <r>   31.0491    0.0000 </r>
       <r>   31.4273    0.0000 </r>
       <r>   32.8140    0.0000 </r>
       <r>   32.9687    0.0000 </r>
       <r>   33.8741    0.0000 </r>
       <r>   34.4682    0.0000 </r>
       <r>   35.8541    0.0000 </r>
       <r>   36.3903    0.0000 </r>
       <r>   37.7697    0.0000 </r>
       <r>   38.3991    0.0000 </r>
       <r>   38.5902    0.0000 </r>
       <r>   40.5770    0.0000 </r>
       <r>   40.6095    0.0000 </r>
       <r>   40.8859    0.0000 </r>
       <r>   41.5750    0.0000 </r>
       <r>   42.3774    0.0000 </r>
       <r>   43.8728    0.0000 </r>
       <r>   44.1030    0.0000 </r>
       <r>   45.4086    0.0000 </r>
       <r>   45.5400    0.0000 </r>
       <r>   46.0939    0.0000 </r>
       <r>   48.2607    0.0000 </r>
       <r>   48.8559    0.0000 </r>
       <r>   49.7176    0.0000 </r>
       <r>   50.5957    0.0000 </r>
       <r>   51.7333    0.0000 </r>
       <r>   52.5123    0.0000 </r>
       <r>   53.4476    0.0000 </r>
       <r>   54.1857    0.0000 </r>
       <r>   55.0901    0.0000 </r>
       <r>   56.2927    0.0000 </r>
       <r>   56.3568    0.0000 </r>
       <r>   57.5983    0.0000 </r>
       <r>   59.0005    0.0000 </r>
       <r>   59.5948    0.0000 </r>
       <r>   59.6958    0.0000 </r>
       <r>   60.5930    0.0000 </r>
       <r>   60.8987    0.0000 </r>
       <r>   60.9846    0.0000 </r>
       <r>   61.4888    0.0000 </r>
       <r>   62.1049    0.0000 </r>
       <r>   63.2599    0.0000 </r>
       <r>   65.8173    0.0000 </r>
       <r>   66.3470    0.0000 </r>
       <r>   67.5043    0.0000 </r>
       <r>   68.9598    0.0000 </r>
       <r>   69.3439    0.0000 </r>
       <r>   69.8239    0.0000 </r>
       <r>   72.4120    0.0000 </r>
       <r>   72.7241    0.0000 </r>
       <r>   73.1375    0.0000 </r>
      </set>
      <set comment="kpoint 15">
       <r>  -10.2097    1.0000 </r>
       <r>   -3.7303    1.0000 </r>
       <r>    1.0706    1.0000 </r>
       <r>    1.0808    1.0000 </r>
       <r>    4.7170    0.0000 </r>
       <r>    7.6172    0.0000 </r>
       <r>    8.2011    0.0000 </r>
       <r>   10.5611    0.0000 </r>
       <r>   12.2365    0.0000 </r>
       <r>   13.1597    0.0000 </r>
       <r>   13.8772    0.0000 </r>
       <r>   17.2562    0.0000 </r>
       <r>   18.6608    0.0000 </r>
       <r>   19.7508    0.0000 </r>
       <r>   21.1199    0.0000 </r>
       <r>   21.1923    0.0000 </r>
       <r>   22.2971    0.0000 </r>
       <r>   25.3344    0.0000 </r>
       <r>   28.6984    0.0000 </r>
       <r>   28.9548    0.0000 </r>
       <r>   29.2651    0.0000 </r>
       <r>   30.2232    0.0000 </r>
       <r>   31.1426    0.0000 </r>
       <r>   31.7737    0.0000 </r>
       <r>   32.0583    0.0000 </r>
       <r>   33.4955    0.0000 </r>
       <r>   34.2770    0.0000 </r>
       <r>   35.0803    0.0000 </r>
       <r>   35.5524    0.0000 </r>
       <r>   36.7157    0.0000 </r>
       <r>   37.5836    0.0000 </r>
       <r>   37.5913    0.0000 </r>
       <r>   39.9544    0.0000 </r>
       <r>   40.3398    0.0000 </r>
       <r>   41.1065    0.0000 </r>
       <r>   42.8147    0.0000 </r>
       <r>   43.3066    0.0000 </r>
       <r>   44.1295    0.0000 </r>
       <r>   44.5789    0.0000 </r>
       <r>   45.6696    0.0000 </r>
       <r>   45.7215    0.0000 </r>
       <r>   47.3429    0.0000 </r>
       <r>   48.2997    0.0000 </r>
       <r>   49.5856    0.0000 </r>
       <r>   50.9147    0.0000 </r>
       <r>   51.7370    0.0000 </r>
       <r>   53.5260    0.0000 </r>
       <r>   54.2072    0.0000 </r>
       <r>   54.4726    0.0000 </r>
       <r>   54.6570    0.0000 </r>
       <r>   56.2244    0.0000 </r>
       <r>   56.6818    0.0000 </r>
       <r>   57.5070    0.0000 </r>
       <r>   58.5254    0.0000 </r>
       <r>   58.5268    0.0000 </r>
       <r>   58.9518    0.0000 </r>
       <r>   59.1189    0.0000 </r>
       <r>   60.4793    0.0000 </r>
       <r>   61.7928    0.0000 </r>
       <r>   62.2733    0.0000 </r>
       <r>   62.8993    0.0000 </r>
       <r>   62.9385    0.0000 </r>
       <r>   63.7572    0.0000 </r>
       <r>   63.9304    0.0000 </r>
       <r>   65.1765    0.0000 </r>
       <r>   66.3780    0.0000 </r>
       <r>   66.6383    0.0000 </r>
       <r>   67.6232    0.0000 </r>
       <r>   70.2124    0.0000 </r>
       <r>   70.2702    0.0000 </r>
       <r>   71.1413    0.0000 </r>
       <r>   71.7045    0.0000 </r>
      </set>
      <set comment="kpoint 16">
       <r>   -9.8921    1.0000 </r>
       <r>   -4.4203    1.0000 </r>
       <r>    0.8880    1.0000 </r>
       <r>    1.0184    1.0000 </r>
       <r>    4.5966    0.0000 </r>
       <r>    7.6306    0.0000 </r>
       <r>    8.0906    0.0000 </r>
       <r>   11.0862    0.0000 </r>
       <r>   12.6424    0.0000 </r>
       <r>   14.1555    0.0000 </r>
       <r>   14.8260    0.0000 </r>
       <r>   16.7228    0.0000 </r>
       <r>   17.1992    0.0000 </r>
       <r>   18.9657    0.0000 </r>
       <r>   21.3696    0.0000 </r>
       <r>   22.8526    0.0000 </r>
       <r>   23.9948    0.0000 </r>
       <r>   26.3185    0.0000 </r>
       <r>   27.4518    0.0000 </r>
       <r>   28.0304    0.0000 </r>
       <r>   28.7623    0.0000 </r>
       <r>   29.7446    0.0000 </r>
       <r>   29.8488    0.0000 </r>
       <r>   31.7261    0.0000 </r>
       <r>   32.1074    0.0000 </r>
       <r>   32.8184    0.0000 </r>
       <r>   33.7149    0.0000 </r>
       <r>   34.5556    0.0000 </r>
       <r>   34.9014    0.0000 </r>
       <r>   36.4366    0.0000 </r>
       <r>   36.9565    0.0000 </r>
       <r>   37.2353    0.0000 </r>
       <r>   39.3604    0.0000 </r>
       <r>   39.7148    0.0000 </r>
       <r>   41.0339    0.0000 </r>
       <r>   43.0273    0.0000 </r>
       <r>   43.4718    0.0000 </r>
       <r>   45.1963    0.0000 </r>
       <r>   45.2978    0.0000 </r>
       <r>   46.1491    0.0000 </r>
       <r>   47.5133    0.0000 </r>
       <r>   47.8491    0.0000 </r>
       <r>   49.3717    0.0000 </r>
       <r>   50.3553    0.0000 </r>
       <r>   51.7393    0.0000 </r>
       <r>   52.5676    0.0000 </r>
       <r>   53.5761    0.0000 </r>
       <r>   54.0283    0.0000 </r>
       <r>   55.1129    0.0000 </r>
       <r>   55.9475    0.0000 </r>
       <r>   56.0724    0.0000 </r>
       <r>   56.6602    0.0000 </r>
       <r>   56.7695    0.0000 </r>
       <r>   57.7518    0.0000 </r>
       <r>   58.5264    0.0000 </r>
       <r>   59.6220    0.0000 </r>
       <r>   60.6061    0.0000 </r>
       <r>   61.3984    0.0000 </r>
       <r>   61.4136    0.0000 </r>
       <r>   61.6982    0.0000 </r>
       <r>   63.0508    0.0000 </r>
       <r>   63.7973    0.0000 </r>
       <r>   64.0243    0.0000 </r>
       <r>   64.8665    0.0000 </r>
       <r>   65.2039    0.0000 </r>
       <r>   66.1124    0.0000 </r>
       <r>   67.0356    0.0000 </r>
       <r>   67.8824    0.0000 </r>
       <r>   68.0613    0.0000 </r>
       <r>   68.9238    0.0000 </r>
       <r>   69.2097    0.0000 </r>
       <r>   69.6460    0.0000 </r>
      </set>
      <set comment="kpoint 17">
       <r>   -9.7110    1.0000 </r>
       <r>   -4.7815    1.0000 </r>
       <r>    0.7679    1.0000 </r>
       <r>    1.0264    1.0000 </r>
       <r>    4.5370    0.0000 </r>
       <r>    7.6609    0.0000 </r>
       <r>    7.9909    0.0000 </r>
       <r>   11.2223    0.0000 </r>
       <r>   13.4457    0.0000 </r>
       <r>   14.8775    0.0000 </r>
       <r>   15.3400    0.0000 </r>
       <r>   16.1025    0.0000 </r>
       <r>   16.4682    0.0000 </r>
       <r>   17.7505    0.0000 </r>
       <r>   22.7738    0.0000 </r>
       <r>   24.6302    0.0000 </r>
       <r>   24.7263    0.0000 </r>
       <r>   25.6983    0.0000 </r>
       <r>   26.1594    0.0000 </r>
       <r>   27.2049    0.0000 </r>
       <r>   29.0513    0.0000 </r>
       <r>   29.5697    0.0000 </r>
       <r>   29.9021    0.0000 </r>
       <r>   30.8926    0.0000 </r>
       <r>   31.8535    0.0000 </r>
       <r>   32.3223    0.0000 </r>
       <r>   33.8465    0.0000 </r>
       <r>   34.3650    0.0000 </r>
       <r>   34.4725    0.0000 </r>
       <r>   36.4808    0.0000 </r>
       <r>   36.6109    0.0000 </r>
[...]
       <r>    62.5419     2.4650   118.4794 </r>
       <r>    62.5907     2.8509   118.6185 </r>
       <r>    62.6396     2.8379   118.7571 </r>
       <r>    62.6884     2.7473   118.8912 </r>
       <r>    62.7372     2.5349   119.0149 </r>
       <r>    62.7860     2.0996   119.1174 </r>
       <r>    62.8348     1.9457   119.2124 </r>
       <r>    62.8836     1.5021   119.2857 </r>
       <r>    62.9324     1.6425   119.3659 </r>
       <r>    62.9813     2.1705   119.4718 </r>
       <r>    63.0301     2.8951   119.6132 </r>
       <r>    63.0789     2.9935   119.7593 </r>
       <r>    63.1277     2.9140   119.9015 </r>
       <r>    63.1765     3.4567   120.0703 </r>
       <r>    63.2253     3.3634   120.2345 </r>
       <r>    63.2741     2.8328   120.3727 </r>
       <r>    63.3230     2.5535   120.4974 </r>
       <r>    63.3718     3.0215   120.6449 </r>
       <r>    63.4206     2.6265   120.7731 </r>
       <r>    63.4694     2.7773   120.9087 </r>
       <r>    63.5182     3.1032   121.0601 </r>
       <r>    63.5670     2.6541   121.1897 </r>
       <r>    63.6158     2.9210   121.3323 </r>
       <r>    63.6647     2.7617   121.4671 </r>
       <r>    63.7135     2.1847   121.5737 </r>
       <r>    63.7623     2.5224   121.6969 </r>
       <r>    63.8111     3.1494   121.8506 </r>
       <r>    63.8599     3.3259   122.0130 </r>
       <r>    63.9087     2.8338   122.1513 </r>
       <r>    63.9575     2.9406   122.2948 </r>
       <r>    64.0064     3.3339   122.4576 </r>
       <r>    64.0552     3.0205   122.6050 </r>
       <r>    64.1040     2.1427   122.7096 </r>
       <r>    64.1528     1.4594   122.7809 </r>
       <r>    64.2016     1.7742   122.8675 </r>
       <r>    64.2504     2.1991   122.9748 </r>
       <r>    64.2992     2.7440   123.1088 </r>
       <r>    64.3481     3.0976   123.2600 </r>
       <r>    64.3969     2.9858   123.4057 </r>
       <r>    64.4457     2.5961   123.5324 </r>
       <r>    64.4945     2.1906   123.6394 </r>
       <r>    64.5433     2.6653   123.7695 </r>
       <r>    64.5921     3.1674   123.9241 </r>
       <r>    64.6410     3.1152   124.0762 </r>
       <r>    64.6898     2.7055   124.2082 </r>
       <r>    64.7386     2.5048   124.3305 </r>
       <r>    64.7874     2.6597   124.4603 </r>
       <r>    64.8362     2.9202   124.6029 </r>
       <r>    64.8850     2.3544   124.7178 </r>
       <r>    64.9338     2.2793   124.8291 </r>
       <r>    64.9827     2.3950   124.9460 </r>
       <r>    65.0315     2.0685   125.0470 </r>
       <r>    65.0803     2.7062   125.1791 </r>
       <r>    65.1291     3.3122   125.3407 </r>
       <r>    65.1779     3.3725   125.5054 </r>
       <r>    65.2267     3.1029   125.6568 </r>
       <r>    65.2755     2.2673   125.7675 </r>
       <r>    65.3244     1.7035   125.8507 </r>
       <r>    65.3732     1.9562   125.9462 </r>
       <r>    65.4220     2.4584   126.0662 </r>
       <r>    65.4708     2.2886   126.1779 </r>
       <r>    65.5196     1.9087   126.2711 </r>
       <r>    65.5684     1.7361   126.3558 </r>
       <r>    65.6172     2.6158   126.4835 </r>
       <r>    65.6661     2.5300   126.6070 </r>
       <r>    65.7149     2.2815   126.7184 </r>
       <r>    65.7637     2.7230   126.8513 </r>
       <r>    65.8125     2.8874   126.9922 </r>
       <r>    65.8613     2.6417   127.1212 </r>
       <r>    65.9101     2.8285   127.2593 </r>
       <r>    65.9589     2.8034   127.3961 </r>
       <r>    66.0078     3.0899   127.5470 </r>
       <r>    66.0566     3.7344   127.7292 </r>
       <r>    66.1054     4.0167   127.9253 </r>
       <r>    66.1542     3.0839   128.0759 </r>
       <r>    66.2030     2.4994   128.1979 </r>
       <r>    66.2518     2.3452   128.3123 </r>
       <r>    66.3006     2.4495   128.4319 </r>
       <r>    66.3495     3.3307   128.5945 </r>
       <r>    66.3983     3.5921   128.7698 </r>
       <r>    66.4471     2.5434   128.8940 </r>
       <r>    66.4959     1.7244   128.9782 </r>
       <r>    66.5447     1.9312   129.0724 </r>
       <r>    66.5935     2.5899   129.1989 </r>
       <r>    66.6423     3.0789   129.3492 </r>
       <r>    66.6912     2.7367   129.4828 </r>
       <r>    66.7400     2.6241   129.6109 </r>
       <r>    66.7888     2.5348   129.7346 </r>
       <r>    66.8376     2.5021   129.8567 </r>
       <r>    66.8864     2.7400   129.9905 </r>
       <r>    66.9352     2.4460   130.1099 </r>
       <r>    66.9841     2.5750   130.2356 </r>
       <r>    67.0329     2.2469   130.3453 </r>
       <r>    67.0817     1.7509   130.4307 </r>
       <r>    67.1305     2.1925   130.5378 </r>
       <r>    67.1793     2.9450   130.6815 </r>
       <r>    67.2281     3.3533   130.8452 </r>
       <r>    67.2769     3.4092   131.0116 </r>
       <r>    67.3258     2.5346   131.1353 </r>
       <r>    67.3746     1.7364   131.2201 </r>
       <r>    67.4234     1.2626   131.2817 </r>
       <r>    67.4722     1.5869   131.3592 </r>
       <r>    67.5210     2.8803   131.4998 </r>
       <r>    67.5698     3.3562   131.6636 </r>
       <r>    67.6186     3.3408   131.8267 </r>
       <r>    67.6675     3.3779   131.9916 </r>
       <r>    67.7163     3.2076   132.1482 </r>
       <r>    67.7651     2.4681   132.2687 </r>
       <r>    67.8139     1.7541   132.3543 </r>
       <r>    67.8627     2.3777   132.4703 </r>
       <r>    67.9115     3.0683   132.6201 </r>
       <r>    67.9603     3.2326   132.7779 </r>
       <r>    68.0092     2.6488   132.9072 </r>
       <r>    68.0580     2.7117   133.0396 </r>
       <r>    68.1068     2.9986   133.1860 </r>
       <r>    68.1556     2.3088   133.2987 </r>
       <r>    68.2044     2.5376   133.4225 </r>
       <r>    68.2532     2.9483   133.5665 </r>
       <r>    68.3020     2.5659   133.6917 </r>
       <r>    68.3509     2.6858   133.8228 </r>
       <r>    68.3997     2.8883   133.9638 </r>
       <r>    68.4485     2.5600   134.0888 </r>
       <r>    68.4973     2.2956   134.2008 </r>
       <r>    68.5461     2.2832   134.3123 </r>
       <r>    68.5949     2.0117   134.4105 </r>
       <r>    68.6437     2.3660   134.5260 </r>
       <r>    68.6926     2.9679   134.6709 </r>
       <r>    68.7414     2.6808   134.8017 </r>
       <r>    68.7902     2.9255   134.9445 </r>
       <r>    68.8390     3.7915   135.1296 </r>
       <r>    68.8878     3.5345   135.3022 </r>
       <r>    68.9366     2.9569   135.4465 </r>
       <r>    68.9855     2.6191   135.5743 </r>
       <r>    69.0343     2.0137   135.6726 </r>
       <r>    69.0831     1.5786   135.7497 </r>
       <r>    69.1319     1.4193   135.8190 </r>
       <r>    69.1807     2.4424   135.9382 </r>
       <r>    69.2295     3.5346   136.1107 </r>
       <r>    69.2783     3.0488   136.2596 </r>
       <r>    69.3272     3.0147   136.4067 </r>
       <r>    69.3760     2.4769   136.5276 </r>
       <r>    69.4248     1.9361   136.6222 </r>
       <r>    69.4736     2.1017   136.7247 </r>
       <r>    69.5224     1.8447   136.8148 </r>
       <r>    69.5712     2.1311   136.9188 </r>
       <r>    69.6200     2.5141   137.0415 </r>
       <r>    69.6689     2.9276   137.1845 </r>
       <r>    69.7177     3.5351   137.3570 </r>
       <r>    69.7665     3.4923   137.5275 </r>
       <r>    69.8153     2.8075   137.6645 </r>
       <r>    69.8641     2.2172   137.7728 </r>
       <r>    69.9129     2.5682   137.8981 </r>
       <r>    69.9617     3.7237   138.0799 </r>
       <r>    70.0106     3.1829   138.2353 </r>
       <r>    70.0594     2.5247   138.3585 </r>
       <r>    70.1082     3.4051   138.5247 </r>
       <r>    70.1570     3.4666   138.6940 </r>
       <r>    70.2058     3.1035   138.8455 </r>
       <r>    70.2546     3.4883   139.0157 </r>
       <r>    70.3034     2.9778   139.1611 </r>
       <r>    70.3523     2.3456   139.2756 </r>
       <r>    70.4011     2.2929   139.3875 </r>
       <r>    70.4499     2.6122   139.5150 </r>
       <r>    70.4987     2.8154   139.6525 </r>
       <r>    70.5475     2.7161   139.7851 </r>
       <r>    70.5963     2.4722   139.9057 </r>
       <r>    70.6451     2.1069   140.0086 </r>
       <r>    70.6940     2.6173   140.1363 </r>
       <r>    70.7428     3.0507   140.2853 </r>
       <r>    70.7916     2.9490   140.4292 </r>
       <r>    70.8404     2.9950   140.5754 </r>
       <r>    70.8892     2.5230   140.6986 </r>
       <r>    70.9380     1.6029   140.7768 </r>
       <r>    70.9868     1.5276   140.8514 </r>
       <r>    71.0357     2.9559   140.9957 </r>
       <r>    71.0845     3.6351   141.1731 </r>
       <r>    71.1333     3.3331   141.3358 </r>
       <r>    71.1821     3.1493   141.4896 </r>
       <r>    71.2309     2.5259   141.6129 </r>
       <r>    71.2797     2.2347   141.7219 </r>
       <r>    71.3286     2.0359   141.8213 </r>
       <r>    71.3774     1.6231   141.9006 </r>
       <r>    71.4262     1.6647   141.9818 </r>
       <r>    71.4750     1.8082   142.0701 </r>
       <r>    71.5238     1.5524   142.1459 </r>
       <r>    71.5726     1.6263   142.2252 </r>
       <r>    71.6214     1.5808   142.3024 </r>
       <r>    71.6703     1.1218   142.3572 </r>
       <r>    71.7191     0.7727   142.3949 </r>
       <r>    71.7679     0.7148   142.4298 </r>
       <r>    71.8167     1.2057   142.4886 </r>
       <r>    71.8655     1.7218   142.5727 </r>
       <r>    71.9143     1.6100   142.6513 </r>
       <r>    71.9631     1.2751   142.7135 </r>
       <r>    72.0120     0.5667   142.7412 </r>
       <r>    72.0608     0.3611   142.7588 </r>
       <r>    72.1096     0.7640   142.7961 </r>
       <r>    72.1584     0.9723   142.8436 </r>
       <r>    72.2072     1.0566   142.8952 </r>
       <r>    72.2560     1.4877   142.9678 </r>
       <r>    72.3048     1.6587   143.0487 </r>
       <r>    72.3537     1.2022   143.1074 </r>
       <r>    72.4025     0.7709   143.1451 </r>
       <r>    72.4513     0.6832   143.1784 </r>
       <r>    72.5001     0.5771   143.2066 </r>
       <r>    72.5489     0.4057   143.2264 </r>
       <r>    72.5977     0.2925   143.2407 </r>
       <r>    72.6465     0.3444   143.2575 </r>
       <r>    72.6954     0.2561   143.2700 </r>
       <r>    72.7442     0.3573   143.2874 </r>
       <r>    72.7930     0.2560   143.2999 </r>
       <r>    72.8418     0.1270   143.3061 </r>
       <r>    72.8906     0.2338   143.3175 </r>
       <r>    72.9394     0.3937   143.3368 </r>
       <r>    72.9882     0.3963   143.3561 </r>
       <r>    73.0371     0.2050   143.3661 </r>
       <r>    73.0859     0.2287   143.3773 </r>
       <r>    73.1347     0.4767   143.4005 </r>
       <r>    73.1835     0.3627   143.4182 </r>
       <r>    73.2323     0.0858   143.4224 </r>
       <r>    73.2811     0.0711   143.4259 </r>
       <r>    73.3299     0.2488   143.4380 </r>
       <r>    73.3788     0.4664   143.4608 </r>
       <r>    73.4276     0.3728   143.4790 </r>
       <r>    73.4764     0.2102   143.4893 </r>
       <r>    73.5252     0.1775   143.4979 </r>
       <r>    73.5740     0.1755   143.5065 </r>
       <r>    73.6228     0.3383   143.5230 </r>
       <r>    73.6717     0.5163   143.5482 </r>
       <r>    73.7205     0.9404   143.5941 </r>
       <r>    73.7693     0.7320   143.6299 </r>
       <r>    73.8181     0.2815   143.6436 </r>
       <r>    73.8669     0.1176   143.6493 </r>
       <r>    73.9157     0.1683   143.6576 </r>
       <r>    73.9645     0.2182   143.6682 </r>
       <r>    74.0134     0.1859   143.6773 </r>
       <r>    74.0622     0.1398   143.6841 </r>
       <r>    74.1110     0.0979   143.6889 </r>
       <r>    74.1598     0.1396   143.6957 </r>
       <r>    74.2086     0.1710   143.7041 </r>
       <r>    74.2574     0.2302   143.7153 </r>
       <r>    74.3062     0.1355   143.7219 </r>
       <r>    74.3551     0.1896   143.7312 </r>
       <r>    74.4039     0.2516   143.7434 </r>
       <r>    74.4527     0.1591   143.7512 </r>
       <r>    74.5015     0.1863   143.7603 </r>
       <r>    74.5503     0.2708   143.7735 </r>
       <r>    74.5991     0.2728   143.7868 </r>
       <r>    74.6479     0.1755   143.7954 </r>
       <r>    74.6968     0.2057   143.8055 </r>
       <r>    74.7456     0.3498   143.8225 </r>
       <r>    74.7944     0.4038   143.8422 </r>
       <r>    74.8432     0.2849   143.8561 </r>
       <r>    74.8920     0.1515   143.8635 </r>
       <r>    74.9408     0.2049   143.8735 </r>
       <r>    74.9896     0.0999   143.8784 </r>
       <r>    75.0385     0.0106   143.8789 </r>
       <r>    75.0873     0.0155   143.8797 </r>
       <r>    75.1361     0.0646   143.8828 </r>
       <r>    75.1849     0.0754   143.8865 </r>
       <r>    75.2337     0.1041   143.8916 </r>
       <r>    75.2825     0.2801   143.9053 </r>
       <r>    75.3313     0.2906   143.9195 </r>
       <r>    75.3802     0.2418   143.9313 </r>
       <r>    75.4290     0.2059   143.9413 </r>
       <r>    75.4778     0.1660   143.9494 </r>
       <r>    75.5266     0.0647   143.9526 </r>
       <r>    75.5754     0.0438   143.9547 </r>
       <r>    75.6242     0.0781   143.9585 </r>
       <r>    75.6730     0.0432   143.9606 </r>
       <r>    75.7219     0.0058   143.9609 </r>
       <r>    75.7707     0.0002   143.9609 </r>
       <r>    75.8195     0.0007   143.9610 </r>
       <r>    75.8683     0.0200   143.9619 </r>
       <r>    75.9171     0.1244   143.9680 </r>
       <r>    75.9659     0.2093   143.9782 </r>
       <r>    76.0148     0.1140   143.9838 </r>
       <r>    76.0636     0.0489   143.9862 </r>
       <r>    76.1124     0.0606   143.9891 </r>
       <r>    76.1612     0.0324   143.9907 </r>
       <r>    76.2100     0.0535   143.9933 </r>
       <r>    76.2588     0.0478   143.9957 </r>
       <r>    76.3076     0.0085   143.9961 </r>
       <r>    76.3565     0.0003   143.9961 </r>
       <r>    76.4053     0.0000   143.9961 </r>
       <r>    76.4541     0.0000   143.9961 </r>
       <r>    76.5029     0.0000   143.9961 </r>
       <r>    76.5517     0.0000   143.9961 </r>
       <r>    76.6005     0.0000   143.9961 </r>
       <r>    76.6493     0.0000   143.9961 </r>
       <r>    76.6982     0.0000   143.9961 </r>
       <r>    76.7470     0.0000   143.9961 </r>
       <r>    76.7958     0.0000   143.9961 </r>
       <r>    76.8446     0.0000   143.9961 </r>
       <r>    76.8934     0.0000   143.9961 </r>
       <r>    76.9422     0.0000   143.9961 </r>
       <r>    76.9910     0.0000   143.9961 </r>
       <r>    77.0399     0.0001   143.9961 </r>
       <r>    77.0887     0.0045   143.9963 </r>
       <r>    77.1375     0.0294   143.9978 </r>
       <r>    77.1863     0.0367   143.9995 </r>
       <r>    77.2351     0.0089   144.0000 </r>
       <r>    77.2839     0.0004   144.0000 </r>
       <r>    77.3327     0.0000   144.0000 </r>
       <r>    77.3816     0.0000   144.0000 </r>
       <r>    77.4304     0.0000   144.0000 </r>
       <r>    77.4792     0.0000   144.0000 </r>
       <r>    77.5280     0.0000   144.0000 </r>
       <r>    77.5768     0.0000   144.0000 </r>
       <r>    77.6256     0.0000   144.0000 </r>
       <r>    77.6744     0.0000   144.0000 </r>
       <r>    77.7233     0.0000   144.0000 </r>
       <r>    77.7721     0.0000   144.0000 </r>
       <r>    77.8209     0.0000   144.0000 </r>
       <r>    77.8697     0.0000   144.0000 </r>
       <r>    77.9185     0.0000   144.0000 </r>
       <r>    77.9673     0.0000   144.0000 </r>
       <r>    78.0162     0.0000   144.0000 </r>
       <r>    78.0650     0.0000   144.0000 </r>
       <r>    78.1138     0.0000   144.0000 </r>
       <r>    78.1626     0.0000   144.0000 </r>
       <r>    78.2114     0.0000   144.0000 </r>
       <r>    78.2602     0.0000   144.0000 </r>
       <r>    78.3090     0.0000   144.0000 </r>
       <r>    78.3579     0.0000   144.0000 </r>
       <r>    78.4067     0.0000   144.0000 </r>
       <r>    78.4555     0.0000   144.0000 </r>
       <r>    78.5043     0.0000   144.0000 </r>
       <r>    78.5531     0.0000   144.0000 </r>
       <r>    78.6019     0.0000   144.0000 </r>
       <r>    78.6507     0.0000   144.0000 </r>
       <r>    78.6996     0.0000   144.0000 </r>
       <r>    78.7484     0.0000   144.0000 </r>
       <r>    78.7972     0.0000   144.0000 </r>
       <r>    78.8460     0.0000   144.0000 </r>
       <r>    78.8948     0.0000   144.0000 </r>
       <r>    78.9436     0.0000   144.0000 </r>
       <r>    78.9924     0.0000   144.0000 </r>
       <r>    79.0413     0.0000   144.0000 </r>
       <r>    79.0901     0.0000   144.0000 </r>
       <r>    79.1389     0.0000   144.0000 </r>
       <r>    79.1877     0.0000   144.0000 </r>
       <r>    79.2365     0.0000   144.0000 </r>
       <r>    79.2853     0.0000   144.0000 </r>
       <r>    79.3341     0.0000   144.0000 </r>
       <r>    79.3830     0.0000   144.0000 </r>
       <r>    79.4318     0.0000   144.0000 </r>
       <r>    79.4806     0.0000   144.0000 </r>
       <r>    79.5294     0.0000   144.0000 </r>
       <r>    79.5782     0.0000   144.0000 </r>
       <r>    79.6270     0.0000   144.0000 </r>
       <r>    79.6758     0.0000   144.0000 </r>
       <r>    79.7247     0.0000   144.0000 </r>
       <r>    79.7735     0.0000   144.0000 </r>
       <r>    79.8223     0.0000   144.0000 </r>
       <r>    79.8711     0.0000   144.0000 </r>
       <r>    79.9199     0.0000   144.0000 </r>
       <r>    79.9687     0.0000   144.0000 </r>
       <r>    80.0175     0.0000   144.0000 </r>
       <r>    80.0664     0.0000   144.0000 </r>
       <r>    80.1152     0.0000   144.0000 </r>
       <r>    80.1640     0.0000   144.0000 </r>
       <r>    80.2128     0.0000   144.0000 </r>
       <r>    80.2616     0.0000   144.0000 </r>
       <r>    80.3104     0.0000   144.0000 </r>
       <r>    80.3593     0.0000   144.0000 </r>
       <r>    80.4081     0.0000   144.0000 </r>
       <r>    80.4569     0.0000   144.0000 </r>
       <r>    80.5057     0.0000   144.0000 </r>
       <r>    80.5545     0.0000   144.0000 </r>
       <r>    80.6033     0.0000   144.0000 </r>
       <r>    80.6521     0.0000   144.0000 </r>
       <r>    80.7010     0.0000   144.0000 </r>
       <r>    80.7498     0.0000   144.0000 </r>
       <r>    80.7986     0.0000   144.0000 </r>
       <r>    80.8474     0.0000   144.0000 </r>
       <r>    80.8962     0.0000   144.0000 </r>
       <r>    80.9450     0.0000   144.0000 </r>
       <r>    80.9938     0.0000   144.0000 </r>
       <r>    81.0427     0.0000   144.0000 </r>
       <r>    81.0915     0.0000   144.0000 </r>
       <r>    81.1403     0.0000   144.0000 </r>
       <r>    81.1891     0.0000   144.0000 </r>
       <r>    81.2379     0.0000   144.0000 </r>
       <r>    81.2867     0.0000   144.0000 </r>
       <r>    81.3355     0.0000   144.0000 </r>
       <r>    81.3844     0.0000   144.0000 </r>
       <r>    81.4332     0.0000   144.0000 </r>
       <r>    81.4820     0.0000   144.0000 </r>
       <r>    81.5308     0.0000   144.0000 </r>
       <r>    81.5796     0.0000   144.0000 </r>
      </set>
     </set>
    </array>
   </total>
  </dos>
 </calculation>
 <structure name="finalpos" >
  <crystal>
   <varray name="basis" >
    <v>       0.00000000       2.82685000       2.82685000 </v>
    <v>       2.82685000       0.00000000       2.82685000 </v>
    <v>       2.82685000       2.82685000       0.00000000 </v>
   </varray>
   <i name="volume">     45.17917421 </i>
   <varray name="rec_basis" >
    <v>      -0.17687532       0.17687532       0.17687532 </v>
    <v>       0.17687532      -0.17687532       0.17687532 </v>
    <v>       0.17687532       0.17687532      -0.17687532 </v>
   </varray>
  </crystal>
  <varray name="positions" >
   <v>       0.25000000       0.25000000       0.25000000 </v>
   <v>       0.00000000       0.00000000       0.00000000 </v>
  </varray>
 </structure>
</modeling>
