<?xml version="1.0" encoding="ISO-8859-1"?>
<modeling>
 <generator>
  <i name="program" type="string">vasp </i>
  <i name="version" type="string">5.4.4.18Apr17-6-g9f103f2a35  </i>
  <i name="subversion" type="string">(build Jul 19 2018 11:24:23) complex            parallel </i>
  <i name="platform" type="string">CrayXC50 </i>
  <i name="date" type="string">2019 07 06 </i>
  <i name="time" type="string">12:23:38 </i>
 </generator>
 <incar>
  <i type="string" name="SYSTEM"> Si</i>
  <i type="string" name="PREC">normal</i>
  <i type="string" name="ALGO"> BSE</i>
  <i name="ENCUT">    250.00000000</i>
  <i type="int" name="NBANDS">   216</i>
  <i type="int" name="NEDOS">  3000</i>
  <i type="int" name="ISMEAR">     0</i>
  <i name="SIGMA">      0.05000000</i>
  <i type="logical" name="LOPTICS"> T  </i>
  <i type="int" name="NOMEGA">    72</i>
  <v type="int" name="KPOINT_BSE">    -1     0     0     0</v>
  <i type="int" name="NBANDSO">    16</i>
  <i type="int" name="NBANDSV">    16</i>
  <i name="OMEGAMAX">     10.00000000</i>
  <i type="logical" name="LSPECTRAL"> T  </i>
  <i name="OMEGAMAX">     10.00000000</i>
 </incar>
 <structure name="primitive_cell" >
  <crystal>
   <varray name="basis" >
    <v>       0.00000000       2.71535000       2.71535000 </v>
    <v>       2.71535000       0.00000000       2.71535000 </v>
    <v>       2.71535000       2.71535000       0.00000000 </v>
   </varray>
   <i name="volume">     40.04123332 </i>
   <varray name="rec_basis" >
    <v>      -0.18413832       0.18413832       0.18413832 </v>
    <v>       0.18413832      -0.18413832       0.18413832 </v>
    <v>       0.18413832       0.18413832      -0.18413832 </v>
   </varray>
  </crystal>
  <varray name="positions" >
   <v>       0.00000000       0.00000000       0.00000000 </v>
   <v>       0.25000000       0.25000000       0.25000000 </v>
  </varray>
 </structure>
 <varray name="primitive_index" >
  <v type="int" >        1 </v>
  <v type="int" >        2 </v>
 </varray>
 <kpoints>
  <generation param="Gamma">
   <v type="int" name="divisions">      12       12       12 </v>
   <v name="usershift">      0.00000000       0.00000000       0.00000000 </v>
   <v name="genvec1">      0.08333333       0.00000000      -0.00000000 </v>
   <v name="genvec2">      0.00000000       0.08333333       0.00000000 </v>
   <v name="genvec3">     -0.00000000      -0.00000000       0.08333333 </v>
   <v name="shift">      0.00000000       0.00000000       0.00000000 </v>
  </generation>
  <varray name="kpointlist" >
   <v>       0.00000000       0.00000000       0.00000000 </v>
   <v>       0.08333333       0.00000000       0.00000000 </v>
   <v>       0.16666667      -0.00000000      -0.00000000 </v>
   <v>       0.25000000       0.00000000      -0.00000000 </v>
   <v>       0.33333333       0.00000000      -0.00000000 </v>
   <v>       0.41666667       0.00000000       0.00000000 </v>
   <v>       0.50000000       0.00000000      -0.00000000 </v>
   <v>       0.08333333       0.08333333       0.00000000 </v>
   <v>       0.16666667       0.08333333       0.00000000 </v>
   <v>       0.25000000       0.08333333       0.00000000 </v>
   <v>       0.33333333       0.08333333      -0.00000000 </v>
   <v>       0.41666667       0.08333333      -0.00000000 </v>
   <v>       0.50000000       0.08333333       0.00000000 </v>
   <v>      -0.41666667       0.08333333      -0.00000000 </v>
   <v>      -0.33333333       0.08333333      -0.00000000 </v>
   <v>      -0.25000000       0.08333333       0.00000000 </v>
   <v>      -0.16666667       0.08333333       0.00000000 </v>
   <v>      -0.08333333       0.08333333      -0.00000000 </v>
   <v>       0.16666667       0.16666667       0.00000000 </v>
   <v>       0.25000000       0.16666667       0.00000000 </v>
   <v>       0.33333333       0.16666667       0.00000000 </v>
   <v>       0.41666667       0.16666667       0.00000000 </v>
   <v>       0.50000000       0.16666667       0.00000000 </v>
   <v>      -0.41666667       0.16666667      -0.00000000 </v>
   <v>      -0.33333333       0.16666667       0.00000000 </v>
   <v>      -0.25000000       0.16666667      -0.00000000 </v>
   <v>      -0.16666667       0.16666667       0.00000000 </v>
   <v>       0.25000000       0.25000000       0.00000000 </v>
   <v>       0.33333333       0.25000000       0.00000000 </v>
   <v>       0.41666667       0.25000000       0.00000000 </v>
   <v>       0.50000000       0.25000000       0.00000000 </v>
   <v>      -0.41666667       0.25000000      -0.00000000 </v>
   <v>      -0.33333333       0.25000000       0.00000000 </v>
   <v>      -0.25000000       0.25000000       0.00000000 </v>
   <v>       0.33333333       0.33333333       0.00000000 </v>
   <v>       0.41666667       0.33333333       0.00000000 </v>
   <v>       0.50000000       0.33333333       0.00000000 </v>
   <v>      -0.41666667       0.33333333      -0.00000000 </v>
   <v>      -0.33333333       0.33333333       0.00000000 </v>
   <v>       0.41666667       0.41666667       0.00000000 </v>
   <v>       0.50000000       0.41666667       0.00000000 </v>
   <v>      -0.41666667       0.41666667      -0.00000000 </v>
   <v>       0.50000000       0.50000000       0.00000000 </v>
   <v>       0.25000000       0.16666667       0.08333333 </v>
   <v>       0.33333333       0.16666667       0.08333333 </v>
   <v>       0.41666667       0.16666667       0.08333333 </v>
   <v>       0.50000000       0.16666667       0.08333333 </v>
   <v>      -0.41666667       0.16666667       0.08333333 </v>
   <v>       0.33333333       0.25000000       0.08333333 </v>
   <v>       0.41666667       0.25000000       0.08333333 </v>
   <v>       0.50000000       0.25000000       0.08333333 </v>
   <v>      -0.41666667       0.25000000       0.08333333 </v>
   <v>      -0.33333333       0.25000000       0.08333333 </v>
   <v>      -0.25000000       0.25000000       0.08333333 </v>
   <v>      -0.16666667       0.25000000       0.08333333 </v>
   <v>       0.41666667       0.33333333       0.08333333 </v>
   <v>       0.50000000       0.33333333       0.08333333 </v>
   <v>      -0.41666667       0.33333333       0.08333333 </v>
   <v>      -0.33333333       0.33333333       0.08333333 </v>
   <v>      -0.25000000       0.33333333       0.08333333 </v>
   <v>       0.50000000       0.41666667       0.08333333 </v>
   <v>      -0.41666667       0.41666667       0.08333333 </v>
   <v>      -0.33333333       0.41666667       0.08333333 </v>
   <v>      -0.41666667       0.50000000       0.08333333 </v>
   <v>       0.50000000       0.33333333       0.16666667 </v>
   <v>      -0.41666667       0.33333333       0.16666667 </v>
   <v>      -0.33333333       0.33333333       0.16666667 </v>
   <v>      -0.41666667       0.41666667       0.16666667 </v>
   <v>      -0.33333333       0.41666667       0.16666667 </v>
   <v>      -0.25000000       0.41666667       0.16666667 </v>
   <v>      -0.33333333       0.50000000       0.16666667 </v>
   <v>      -0.25000000       0.50000000       0.25000000 </v>
  </varray>
  <varray name="weights" >
   <v>       0.00057870 </v>
   <v>       0.00462963 </v>
   <v>       0.00462963 </v>
   <v>       0.00462963 </v>
   <v>       0.00462963 </v>
   <v>       0.00462963 </v>
   <v>       0.00231481 </v>
   <v>       0.00347222 </v>
   <v>       0.01388889 </v>
   <v>       0.01388889 </v>
   <v>       0.01388889 </v>
   <v>       0.01388889 </v>
   <v>       0.01388889 </v>
   <v>       0.01388889 </v>
   <v>       0.01388889 </v>
   <v>       0.01388889 </v>
   <v>       0.01388889 </v>
   <v>       0.00694444 </v>
   <v>       0.00347222 </v>
   <v>       0.01388889 </v>
   <v>       0.01388889 </v>
   <v>       0.01388889 </v>
   <v>       0.01388889 </v>
   <v>       0.01388889 </v>
   <v>       0.01388889 </v>
   <v>       0.01388889 </v>
   <v>       0.00694444 </v>
   <v>       0.00347222 </v>
   <v>       0.01388889 </v>
   <v>       0.01388889 </v>
   <v>       0.01388889 </v>
   <v>       0.01388889 </v>
   <v>       0.01388889 </v>
   <v>       0.00694444 </v>
   <v>       0.00347222 </v>
   <v>       0.01388889 </v>
   <v>       0.01388889 </v>
   <v>       0.01388889 </v>
   <v>       0.00694444 </v>
   <v>       0.00347222 </v>
   <v>       0.01388889 </v>
   <v>       0.00694444 </v>
   <v>       0.00173611 </v>
   <v>       0.01388889 </v>
   <v>       0.02777778 </v>
   <v>       0.02777778 </v>
   <v>       0.02777778 </v>
   <v>       0.01388889 </v>
   <v>       0.01388889 </v>
   <v>       0.02777778 </v>
   <v>       0.02777778 </v>
   <v>       0.02777778 </v>
   <v>       0.02777778 </v>
   <v>       0.02777778 </v>
   <v>       0.01388889 </v>
   <v>       0.01388889 </v>
   <v>       0.02777778 </v>
   <v>       0.02777778 </v>
   <v>       0.02777778 </v>
   <v>       0.01388889 </v>
   <v>       0.01388889 </v>
   <v>       0.02777778 </v>
   <v>       0.01388889 </v>
   <v>       0.00694444 </v>
   <v>       0.01388889 </v>
   <v>       0.02777778 </v>
   <v>       0.01388889 </v>
   <v>       0.01388889 </v>
   <v>       0.02777778 </v>
   <v>       0.01388889 </v>
   <v>       0.00694444 </v>
   <v>       0.00347222 </v>
  </varray>
 </kpoints>
 <parameters>
  <separator name="general" >
   <i type="string" name="SYSTEM">Si</i>
   <i type="logical" name="LCOMPAT"> F  </i>
  </separator>
  <separator name="electronic" >
   <i type="string" name="PREC">normal</i>
   <i name="ENMAX">    250.00000000</i>
   <i name="ENAUG">    322.06900000</i>
   <i name="EDIFF">      0.00010000</i>
   <i type="int" name="IALGO">    38</i>
   <i type="int" name="IWAVPR">    10</i>
   <i type="int" name="NBANDS">   216</i>
   <i name="NELECT">      8.00000000</i>
   <i type="int" name="TURBO">     0</i>
   <i type="int" name="IRESTART">     0</i>
   <i type="int" name="NREBOOT">     0</i>
   <i type="int" name="NMIN">     0</i>
   <i name="EREF">      0.00000000</i>
   <separator name="electronic smearing" >
    <i type="int" name="ISMEAR">     0</i>
    <i name="SIGMA">      0.05000000</i>
    <i name="KSPACING">      0.50000000</i>
    <i type="logical" name="KGAMMA"> T  </i>
   </separator>
   <separator name="electronic projectors" >
    <i type="logical" name="LREAL"> F  </i>
    <v name="ROPT">      0.00000000</v>
    <i type="int" name="LMAXPAW">  -100</i>
    <i type="int" name="LMAXMIX">     2</i>
    <i type="logical" name="NLSPLINE"> F  </i>
   </separator>
   <separator name="electronic startup" >
    <i type="int" name="ISTART">     1</i>
    <i type="int" name="ICHARG">     0</i>
    <i type="int" name="INIWAV">     1</i>
   </separator>
   <separator name="electronic spin" >
    <i type="int" name="ISPIN">     1</i>
    <i type="logical" name="LNONCOLLINEAR"> F  </i>
    <v name="MAGMOM">      1.00000000      1.00000000</v>
    <i name="NUPDOWN">     -1.00000000</i>
    <i type="logical" name="LSORBIT"> F  </i>
    <v name="SAXIS">      0.00000000      0.00000000      1.00000000</v>
    <i type="logical" name="LSPIRAL"> F  </i>
    <v name="QSPIRAL">      0.00000000      0.00000000      0.00000000</v>
    <i type="logical" name="LZEROZ"> F  </i>
   </separator>
   <separator name="electronic exchange-correlation" >
    <i type="logical" name="LASPH"> F  </i>
    <i type="logical" name="LMETAGGA"> F  </i>
   </separator>
   <separator name="electronic convergence" >
    <i type="int" name="NELM">    60</i>
    <i type="int" name="NELMDL">     0</i>
    <i type="int" name="NELMIN">     2</i>
    <i name="ENINI">    250.00000000</i>
    <separator name="electronic convergence detail" >
     <i type="logical" name="LDIAG"> T  </i>
     <i type="logical" name="LSUBROT"> F  </i>
     <i name="WEIMIN">      0.00000000</i>
     <i name="EBREAK">      0.00000012</i>
     <i name="DEPER">      0.30000000</i>
     <i type="int" name="NRMM">     4</i>
     <i name="TIME">      0.40000000</i>
    </separator>
   </separator>
   <separator name="electronic mixer" >
    <i name="AMIX">      0.40000000</i>
    <i name="BMIX">      1.00000000</i>
    <i name="AMIN">      0.10000000</i>
    <i name="AMIX_MAG">      1.60000000</i>
    <i name="BMIX_MAG">      1.00000000</i>
    <separator name="electronic mixer details" >
     <i type="int" name="IMIX">     1</i>
     <i type="logical" name="MIXFIRST"> F  </i>
     <i type="int" name="MAXMIX">   -45</i>
     <i name="WC">    100.00000000</i>
     <i type="int" name="INIMIX">     1</i>
     <i type="int" name="MIXPRE">     1</i>
     <i type="int" name="MREMOVE">     5</i>
    </separator>
   </separator>
   <separator name="electronic dipolcorrection" >
    <i type="logical" name="LDIPOL"> F  </i>
    <i type="logical" name="LMONO"> F  </i>
    <i type="int" name="IDIPOL">     0</i>
    <i name="EPSILON">      1.00000000</i>
    <v name="DIPOL">   -100.00000000   -100.00000000   -100.00000000</v>
    <i name="EFIELD">      0.00000000</i>
   </separator>
  </separator>
  <separator name="grids" >
   <i type="int" name="NGX">    16</i>
   <i type="int" name="NGY">    16</i>
   <i type="int" name="NGZ">    16</i>
   <i type="int" name="NGXF">    32</i>
   <i type="int" name="NGYF">    32</i>
   <i type="int" name="NGZF">    32</i>
   <i type="logical" name="ADDGRID"> F  </i>
  </separator>
  <separator name="ionic" >
   <i type="int" name="NSW">     0</i>
   <i type="int" name="IBRION">    -1</i>
   <i type="int" name="MDALGO">     0</i>
   <i type="int" name="ISIF">     0</i>
   <i name="PSTRESS">      0.00000000</i>
   <i name="EDIFFG">      0.00100000</i>
   <i type="int" name="NFREE">     0</i>
   <i name="POTIM">      0.50000000</i>
   <i name="SMASS">     -3.00000000</i>
   <i name="SCALEE">      1.00000000</i>
  </separator>
  <separator name="ionic md" >
   <i name="TEBEG">      0.00010000</i>
   <i name="TEEND">      0.00010000</i>
   <i type="int" name="NBLOCK">     1</i>
   <i type="int" name="KBLOCK">     1</i>
   <i type="int" name="NPACO">   256</i>
   <i name="APACO">     16.00000000</i>
  </separator>
  <separator name="symmetry" >
   <i type="int" name="ISYM">     3</i>
   <i name="SYMPREC">      0.00001000</i>
  </separator>
  <separator name="dos" >
   <i type="int" name="LORBIT">     0</i>
   <v name="RWIGS">     -1.00000000</v>
   <i type="int" name="NEDOS">  3000</i>
   <i name="EMIN">     10.00000000</i>
   <i name="EMAX">    -10.00000000</i>
   <i name="EFERMI">      0.00000000</i>
  </separator>
  <separator name="writing" >
   <i type="int" name="NWRITE">     2</i>
   <i type="logical" name="LWAVE"> T  </i>
   <i type="logical" name="LDOWNSAMPLE"> F  </i>
   <i type="logical" name="LCHARG"> T  </i>
   <i type="logical" name="LPARD"> F  </i>
   <i type="logical" name="LVTOT"> F  </i>
   <i type="logical" name="LVHAR"> F  </i>
   <i type="logical" name="LELF"> F  </i>
   <i type="logical" name="LOPTICS"> T  </i>
   <v name="STM">      0.00000000      0.00000000      0.00000000      0.00000000      0.00000000      0.00000000      0.00000000</v>
  </separator>
  <separator name="performance" >
   <i type="int" name="NPAR">    36</i>
   <i type="int" name="NSIM">     4</i>
   <i type="int" name="NBLK">    -1</i>
   <i type="logical" name="LPLANE"> T  </i>
   <i type="logical" name="LSCALAPACK"> T  </i>
   <i type="logical" name="LSCAAWARE"> T  </i>
   <i type="logical" name="LSCALU"> F  </i>
   <i type="logical" name="LASYNC"> F  </i>
   <i type="logical" name="LORBITALREAL"> F  </i>
  </separator>
  <separator name="miscellaneous" >
   <i type="int" name="IDIOT">     3</i>
   <i type="int" name="ISPECIAL">     0</i>
   <i type="logical" name="LMUSIC"> F  </i>
   <v name="POMASS">     28.08500000</v>
   <v name="DARWINR">      0.00000000</v>
   <v name="DARWINV">      1.00000000</v>
   <i type="logical" name="LCORR"> T  </i>
  </separator>
  <i type="logical" name="GGA_COMPAT"> T  </i>
  <i type="logical" name="LBERRY"> F  </i>
  <i type="int" name="ICORELEVEL">     0</i>
  <i type="logical" name="LDAU"> F  </i>
  <i type="int" name="I_CONSTRAINED_M">     0</i>
  <separator name="electronic exchange-correlation" >
   <i type="string" name="GGA">--</i>
   <i type="int" name="VOSKOWN">     0</i>
   <i type="logical" name="LHFCALC"> T  </i>
   <i type="string" name="PRECFOCK">normal</i>
   <i type="logical" name="LSYMGRAD"> F  </i>
   <i type="logical" name="LHFONE"> F  </i>
   <i type="logical" name="LRHFCALC"> F  </i>
   <i type="logical" name="LTHOMAS"> F  </i>
   <i type="logical" name="LMODELHF"> F  </i>
   <i name="ENCUT4O">     -1.00000000</i>
   <i type="int" name="EXXOEP">     0</i>
   <i type="int" name="FOURORBIT">     0</i>
   <i name="AEXX">      1.00000000</i>
   <i name="HFALPHA">     -1.00000000</i>
   <i name="MCALPHA">      0.00000000</i>
   <i name="ALDAX">      0.00000000</i>
   <i name="AGGAX">      0.00000000</i>
   <i name="ALDAC">      0.00000000</i>
   <i name="AGGAC">      0.00000000</i>
   <i type="int" name="NKREDX">     1</i>
   <i type="int" name="NKREDY">     1</i>
   <i type="int" name="NKREDZ">     1</i>
   <i type="logical" name="SHIFTRED"> F  </i>
   <i type="logical" name="ODDONLY"> F  </i>
   <i type="logical" name="EVENONLY"> F  </i>
   <i type="int" name="LMAXFOCK">     4</i>
   <i type="int" name="NMAXFOCKAE">     1</i>
   <i type="logical" name="LFOCKAEDFT"> F  </i>
   <i name="HFSCREEN">      0.00000000</i>
   <i name="HFSCREENC">      0.00000000</i>
   <i type="int" name="NBANDSGWLOW">     1</i>
  </separator>
  <separator name="vdW DFT" >
   <i type="logical" name="LUSE_VDW"> F  </i>
   <i name="Zab_VDW">     -0.84910000</i>
   <i name="PARAM1">      0.12340000</i>
   <i name="PARAM2">      1.00000000</i>
   <i name="PARAM3">      0.00000000</i>
  </separator>
  <separator name="model GW" >
   <i type="int" name="MODEL_GW">     0</i>
   <i name="MODEL_EPS0">     12.01237000</i>
   <i name="MODEL_ALPHA">      1.00000000</i>
  </separator>
  <separator name="linear response parameters" >
   <i type="logical" name="LEPSILON"> F  </i>
   <i type="logical" name="LRPA"> F  </i>
   <i type="logical" name="LNABLA"> F  </i>
   <i type="logical" name="LVEL"> F  </i>
   <i type="int" name="KINTER">     0</i>
   <i name="CSHIFT">      0.10000000</i>
   <i name="OMEGAMAX">     10.00000000</i>
   <i name="DEG_THRESHOLD">      0.00200000</i>
   <i name="RTIME">     -0.10000000</i>
   <i name="WPLASMAI">      0.00000000</i>
   <v name="DFIELD">      0.00000000      0.00000000      0.00000000</v>
   <v name="WPLASMA">      0.00000000      0.00000000      0.00000000      0.00000000      0.00000000      0.00000000      0.00000000      0.00000000      0.00000000</v>
  </separator>
  <separator name="orbital magnetization" >
   <i type="logical" name="NUCIND"> F  </i>
   <v name="MAGPOS">      0.00000000      0.00000000      0.00000000</v>
   <i type="logical" name="LNICSALL"> T  </i>
   <i type="logical" name="ORBITALMAG"> F  </i>
   <i type="logical" name="LMAGBLOCH"> F  </i>
   <i type="logical" name="LCHIMAG"> F  </i>
   <i type="logical" name="LGAUGE"> T  </i>
   <i type="int" name="MAGATOM">     0</i>
   <v name="MAGDIPOL">      0.00000000      0.00000000      0.00000000</v>
   <v name="AVECCONST">      0.00000000      0.00000000      0.00000000</v>
  </separator>
  <separator name="response functions" >
   <i type="logical" name="LADDER"> T  </i>
   <i type="logical" name="LRPAFORCE"> F  </i>
   <i type="logical" name="LFXC"> F  </i>
   <i type="logical" name="LHARTREE"> T  </i>
   <i type="int" name="IBSE">     0</i>
   <v type="int" name="KPOINT">    -1     0     0     0</v>
   <i type="logical" name="LTCTE"> F  </i>
   <i type="logical" name="LTETE"> F  </i>
   <i type="logical" name="LTRIPLET"> F  </i>
   <i type="logical" name="LFXCEPS"> F  </i>
   <i type="logical" name="LFXHEG"> F  </i>
   <i type="int" name="NATURALO">     2</i>
   <i type="logical" name="L2ORDER"> F  </i>
   <i type="logical" name="LMP2LT"> F  </i>
   <i type="logical" name="LUSEW"> T  </i>
   <i name="ENCUTGW">    166.66666667</i>
   <i name="ENCUTGWSOFT">    166.66666667</i>
   <i name="ENCUTLF">     -1.00000000</i>
   <i type="int" name="LMAXMP2">    -1</i>
   <i name="SCISSOR">      0.00000000</i>
   <i type="int" name="NOMEGA">     0</i>
   <i type="int" name="NOMEGAR">     0</i>
   <i type="int" name="NBANDSGW">    -1</i>
   <i type="int" name="NBANDSO">    16</i>
   <i type="int" name="NBANDSV">    16</i>
   <i type="int" name="NELM">     1</i>
   <i type="int" name="NELMHF">     1</i>
   <i type="int" name="DIM">     3</i>
   <i type="int" name="ANTIRES">     0</i>
   <i name="OMEGAMAX">     10.00000000</i>
   <i name="OMEGAMIN">    -30.00000000</i>
   <i name="OMEGATL">   -200.00000000</i>
   <i type="int" name="OMEGAGRID">   140</i>
   <i name="CSHIFT">     -0.10000000</i>
   <i type="logical" name="SELFENERGY"> F  </i>
   <i type="logical" name="LSPECTRAL"> T  </i>
   <i type="logical" name="LSPECTRALGW"> F  </i>
   <i type="logical" name="LSINGLES"> F  </i>
   <i type="logical" name="LFERMIGW"> F  </i>
   <i type="logical" name="ODDONLYGW"> F  </i>
   <i type="logical" name="EVENONLYGW"> F  </i>
   <i type="int" name="NKREDLFX">     1</i>
   <i type="int" name="NKREDLFY">     1</i>
   <i type="int" name="NKREDLFZ">     1</i>
   <i type="int" name="MAXMEM">  2800</i>
   <i type="int" name="TELESCOPE">     0</i>
   <i type="int" name="TAUPAR">     1</i>
   <i type="int" name="OMEGAPAR">    -1</i>
   <i name="LAMBDA">      1.00000000</i>
  </separator>
  <separator name="External order field" >
   <i name="OFIELD_KAPPA">      0.00000000</i>
   <v name="OFIELD_K">      0.00000000      0.00000000      0.00000000</v>
   <i name="OFIELD_Q6_NEAR">      0.00000000</i>
   <i name="OFIELD_Q6_FAR">      0.00000000</i>
   <i name="OFIELD_A">      0.00000000</i>
  </separator>
 </parameters>
 <atominfo>
  <atoms>       2 </atoms>
  <types>       1 </types>
  <array name="atoms" >
   <dimension dim="1">ion</dimension>
   <field type="string">element</field>
   <field type="int">atomtype</field>
   <set>
    <rc><c>Si</c><c>   1</c></rc>
    <rc><c>Si</c><c>   1</c></rc>
   </set>
  </array>
  <array name="atomtypes" >
   <dimension dim="1">type</dimension>
   <field type="int">atomspertype</field>
   <field type="string">element</field>
   <field>mass</field>
   <field>valence</field>
   <field type="string">pseudopotential</field>
   <set>
    <rc><c>   2</c><c>Si</c><c>     28.08500000</c><c>      4.00000000</c><c>  PAW_PBE Si 05Jan2001                  </c></rc>
   </set>
  </array>
 </atominfo>
 <structure name="initialpos" >
  <crystal>
   <varray name="basis" >
    <v>       0.00000000       2.71535000       2.71535000 </v>
    <v>       2.71535000       0.00000000       2.71535000 </v>
    <v>       2.71535000       2.71535000       0.00000000 </v>
   </varray>
   <i name="volume">     40.04123332 </i>
   <varray name="rec_basis" >
    <v>      -0.18413832       0.18413832       0.18413832 </v>
    <v>       0.18413832      -0.18413832       0.18413832 </v>
    <v>       0.18413832       0.18413832      -0.18413832 </v>
   </varray>
  </crystal>
  <varray name="positions" >
   <v>       0.00000000       0.00000000       0.00000000 </v>
   <v>       0.25000000       0.25000000       0.25000000 </v>
  </varray>
 </structure>
 <kpoints>
  <generation param="Gamma">
   <v type="int" name="divisions">      12       12       12 </v>
   <v name="usershift">      0.00000000       0.00000000       0.00000000 </v>
   <v name="genvec1">      0.08333333       0.00000000      -0.00000000 </v>
   <v name="genvec2">      0.00000000       0.08333333       0.00000000 </v>
   <v name="genvec3">     -0.00000000      -0.00000000       0.08333333 </v>
   <v name="shift">      0.00000000       0.00000000       0.00000000 </v>
  </generation>
  <varray name="kpointlist" >
   <v>       0.00000000       0.00000000       0.00000000 </v>
   <v>       0.08333333       0.00000000       0.00000000 </v>
   <v>       0.16666667      -0.00000000      -0.00000000 </v>
   <v>       0.25000000       0.00000000      -0.00000000 </v>
   <v>       0.33333333       0.00000000      -0.00000000 </v>
   <v>       0.41666667       0.00000000       0.00000000 </v>
   <v>       0.50000000       0.00000000      -0.00000000 </v>
   <v>      -0.41666667      -0.00000000      -0.00000000 </v>
   <v>      -0.33333333      -0.00000000       0.00000000 </v>
   <v>      -0.25000000      -0.00000000       0.00000000 </v>
   <v>      -0.16666667      -0.00000000      -0.00000000 </v>
   <v>      -0.08333333      -0.00000000      -0.00000000 </v>
   <v>      -0.00000000       0.08333333       0.00000000 </v>
   <v>       0.08333333       0.08333333       0.00000000 </v>
   <v>       0.16666667       0.08333333       0.00000000 </v>
   <v>       0.25000000       0.08333333       0.00000000 </v>
   <v>       0.33333333       0.08333333      -0.00000000 </v>
   <v>       0.41666667       0.08333333      -0.00000000 </v>
   <v>       0.50000000       0.08333333       0.00000000 </v>
   <v>      -0.41666667       0.08333333      -0.00000000 </v>
   <v>      -0.33333333       0.08333333      -0.00000000 </v>
   <v>      -0.25000000       0.08333333       0.00000000 </v>
   <v>      -0.16666667       0.08333333       0.00000000 </v>
   <v>      -0.08333333       0.08333333      -0.00000000 </v>
   <v>       0.00000000       0.16666667       0.00000000 </v>
   <v>       0.08333333       0.16666667       0.00000000 </v>
   <v>       0.16666667       0.16666667       0.00000000 </v>
   <v>       0.25000000       0.16666667       0.00000000 </v>
   <v>       0.33333333       0.16666667       0.00000000 </v>
   <v>       0.41666667       0.16666667       0.00000000 </v>
   <v>       0.50000000       0.16666667       0.00000000 </v>
   <v>      -0.41666667       0.16666667      -0.00000000 </v>
   <v>      -0.33333333       0.16666667       0.00000000 </v>
   <v>      -0.25000000       0.16666667      -0.00000000 </v>
   <v>      -0.16666667       0.16666667       0.00000000 </v>
   <v>      -0.08333333       0.16666667       0.00000000 </v>
   <v>       0.00000000       0.25000000       0.00000000 </v>
   <v>       0.08333333       0.25000000       0.00000000 </v>
   <v>       0.16666667       0.25000000       0.00000000 </v>
   <v>       0.25000000       0.25000000       0.00000000 </v>
   <v>       0.33333333       0.25000000       0.00000000 </v>
   <v>       0.41666667       0.25000000       0.00000000 </v>
   <v>       0.50000000       0.25000000       0.00000000 </v>
   <v>      -0.41666667       0.25000000      -0.00000000 </v>
   <v>      -0.33333333       0.25000000       0.00000000 </v>
   <v>      -0.25000000       0.25000000       0.00000000 </v>
   <v>      -0.16666667       0.25000000      -0.00000000 </v>
   <v>      -0.08333333       0.25000000       0.00000000 </v>
   <v>       0.00000000       0.33333333       0.00000000 </v>
   <v>       0.08333333       0.33333333       0.00000000 </v>
   <v>       0.16666667       0.33333333       0.00000000 </v>
   <v>       0.25000000       0.33333333       0.00000000 </v>
   <v>       0.33333333       0.33333333       0.00000000 </v>
   <v>       0.41666667       0.33333333       0.00000000 </v>
   <v>       0.50000000       0.33333333       0.00000000 </v>
   <v>      -0.41666667       0.33333333      -0.00000000 </v>
   <v>      -0.33333333       0.33333333       0.00000000 </v>
   <v>      -0.25000000       0.33333333       0.00000000 </v>
   <v>      -0.16666667       0.33333333       0.00000000 </v>
   <v>      -0.08333333       0.33333333       0.00000000 </v>
   <v>      -0.00000000       0.41666667      -0.00000000 </v>
   <v>       0.08333333       0.41666667       0.00000000 </v>
   <v>       0.16666667       0.41666667       0.00000000 </v>
   <v>       0.25000000       0.41666667       0.00000000 </v>
   <v>       0.33333333       0.41666667       0.00000000 </v>
   <v>       0.41666667       0.41666667       0.00000000 </v>
   <v>       0.50000000       0.41666667       0.00000000 </v>
   <v>      -0.41666667       0.41666667      -0.00000000 </v>
   <v>      -0.33333333       0.41666667       0.00000000 </v>
   <v>      -0.25000000       0.41666667      -0.00000000 </v>
   <v>      -0.16666667       0.41666667       0.00000000 </v>
   <v>      -0.08333333       0.41666667       0.00000000 </v>
   <v>       0.00000000       0.50000000       0.00000000 </v>
   <v>       0.08333333       0.50000000      -0.00000000 </v>
   <v>       0.16666667       0.50000000       0.00000000 </v>
   <v>       0.25000000       0.50000000       0.00000000 </v>
   <v>       0.33333333       0.50000000       0.00000000 </v>
   <v>       0.41666667       0.50000000       0.00000000 </v>
   <v>       0.50000000       0.50000000       0.00000000 </v>
   <v>      -0.41666667       0.50000000      -0.00000000 </v>
   <v>      -0.33333333       0.50000000       0.00000000 </v>
   <v>      -0.25000000       0.50000000       0.00000000 </v>
   <v>      -0.16666667       0.50000000       0.00000000 </v>
   <v>      -0.08333333       0.50000000       0.00000000 </v>
   <v>       0.00000000      -0.41666667       0.00000000 </v>
   <v>       0.08333333      -0.41666667      -0.00000000 </v>
   <v>       0.16666667      -0.41666667       0.00000000 </v>
   <v>       0.25000000      -0.41666667       0.00000000 </v>
   <v>       0.33333333      -0.41666667       0.00000000 </v>
   <v>       0.41666667      -0.41666667       0.00000000 </v>
   <v>       0.50000000      -0.41666667       0.00000000 </v>
   <v>      -0.41666667      -0.41666667      -0.00000000 </v>
   <v>      -0.33333333      -0.41666667      -0.00000000 </v>
   <v>      -0.25000000      -0.41666667      -0.00000000 </v>
   <v>      -0.16666667      -0.41666667      -0.00000000 </v>
   <v>      -0.08333333      -0.41666667      -0.00000000 </v>
   <v>      -0.00000000      -0.33333333      -0.00000000 </v>
   <v>       0.08333333      -0.33333333      -0.00000000 </v>
   <v>       0.16666667      -0.33333333      -0.00000000 </v>
   <v>       0.25000000      -0.33333333      -0.00000000 </v>
   <v>       0.33333333      -0.33333333      -0.00000000 </v>
   <v>       0.41666667      -0.33333333      -0.00000000 </v>
   <v>       0.50000000      -0.33333333      -0.00000000 </v>
   <v>      -0.41666667      -0.33333333      -0.00000000 </v>
   <v>      -0.33333333      -0.33333333      -0.00000000 </v>
   <v>      -0.25000000      -0.33333333      -0.00000000 </v>
   <v>      -0.16666667      -0.33333333      -0.00000000 </v>
   <v>      -0.08333333      -0.33333333      -0.00000000 </v>
   <v>      -0.00000000      -0.25000000      -0.00000000 </v>
   <v>       0.08333333      -0.25000000      -0.00000000 </v>
   <v>       0.16666667      -0.25000000       0.00000000 </v>
   <v>       0.25000000      -0.25000000      -0.00000000 </v>
   <v>       0.33333333      -0.25000000      -0.00000000 </v>
   <v>       0.41666667      -0.25000000       0.00000000 </v>
   <v>       0.50000000      -0.25000000      -0.00000000 </v>
   <v>      -0.41666667      -0.25000000      -0.00000000 </v>
   <v>      -0.33333333      -0.25000000      -0.00000000 </v>
   <v>      -0.25000000      -0.25000000      -0.00000000 </v>
   <v>      -0.16666667      -0.25000000      -0.00000000 </v>
   <v>      -0.08333333      -0.25000000      -0.00000000 </v>
   <v>      -0.00000000      -0.16666667      -0.00000000 </v>
   <v>       0.08333333      -0.16666667      -0.00000000 </v>
   <v>       0.16666667      -0.16666667      -0.00000000 </v>
   <v>       0.25000000      -0.16666667       0.00000000 </v>
   <v>       0.33333333      -0.16666667      -0.00000000 </v>
   <v>       0.41666667      -0.16666667       0.00000000 </v>
   <v>       0.50000000      -0.16666667      -0.00000000 </v>
   <v>      -0.41666667      -0.16666667      -0.00000000 </v>
   <v>      -0.33333333      -0.16666667      -0.00000000 </v>
   <v>      -0.25000000      -0.16666667      -0.00000000 </v>
   <v>      -0.16666667      -0.16666667      -0.00000000 </v>
   <v>      -0.08333333      -0.16666667      -0.00000000 </v>
   <v>       0.00000000      -0.08333333      -0.00000000 </v>
   <v>       0.08333333      -0.08333333       0.00000000 </v>
   <v>       0.16666667      -0.08333333      -0.00000000 </v>
   <v>       0.25000000      -0.08333333      -0.00000000 </v>
   <v>       0.33333333      -0.08333333       0.00000000 </v>
   <v>       0.41666667      -0.08333333      -0.00000000 </v>
   <v>       0.50000000      -0.08333333      -0.00000000 </v>
   <v>      -0.41666667      -0.08333333      -0.00000000 </v>
   <v>      -0.33333333      -0.08333333       0.00000000 </v>
   <v>      -0.25000000      -0.08333333      -0.00000000 </v>
   <v>      -0.16666667      -0.08333333      -0.00000000 </v>
   <v>      -0.08333333      -0.08333333      -0.00000000 </v>
   <v>       0.00000000       0.00000000       0.08333333 </v>
   <v>       0.08333333       0.00000000       0.08333333 </v>
   <v>       0.16666667      -0.00000000       0.08333333 </v>
   <v>       0.25000000       0.00000000       0.08333333 </v>
   <v>       0.33333333       0.00000000       0.08333333 </v>
   <v>       0.41666667       0.00000000       0.08333333 </v>
   <v>       0.50000000       0.00000000       0.08333333 </v>
   <v>      -0.41666667      -0.00000000       0.08333333 </v>
   <v>      -0.33333333      -0.00000000       0.08333333 </v>
   <v>      -0.25000000      -0.00000000       0.08333333 </v>
   <v>      -0.16666667      -0.00000000       0.08333333 </v>
   <v>      -0.08333333       0.00000000       0.08333333 </v>
   <v>       0.00000000       0.08333333       0.08333333 </v>
   <v>       0.08333333       0.08333333       0.08333333 </v>
   <v>       0.16666667       0.08333333       0.08333333 </v>
   <v>       0.25000000       0.08333333       0.08333333 </v>
   <v>       0.33333333       0.08333333       0.08333333 </v>
   <v>       0.41666667       0.08333333       0.08333333 </v>
   <v>       0.50000000       0.08333333       0.08333333 </v>
   <v>      -0.41666667       0.08333333       0.08333333 </v>
   <v>      -0.33333333       0.08333333       0.08333333 </v>
   <v>      -0.25000000       0.08333333       0.08333333 </v>
   <v>      -0.16666667       0.08333333       0.08333333 </v>
   <v>      -0.08333333       0.08333333       0.08333333 </v>
   <v>       0.00000000       0.16666667       0.08333333 </v>
   <v>       0.08333333       0.16666667       0.08333333 </v>
   <v>       0.16666667       0.16666667       0.08333333 </v>
   <v>       0.25000000       0.16666667       0.08333333 </v>
   <v>       0.33333333       0.16666667       0.08333333 </v>
   <v>       0.41666667       0.16666667       0.08333333 </v>
   <v>       0.50000000       0.16666667       0.08333333 </v>
   <v>      -0.41666667       0.16666667       0.08333333 </v>
   <v>      -0.33333333       0.16666667       0.08333333 </v>
   <v>      -0.25000000       0.16666667       0.08333333 </v>
   <v>      -0.16666667       0.16666667       0.08333333 </v>
   <v>      -0.08333333       0.16666667       0.08333333 </v>
   <v>       0.00000000       0.25000000       0.08333333 </v>
   <v>       0.08333333       0.25000000       0.08333333 </v>
   <v>       0.16666667       0.25000000       0.08333333 </v>
   <v>       0.25000000       0.25000000       0.08333333 </v>
   <v>       0.33333333       0.25000000       0.08333333 </v>
   <v>       0.41666667       0.25000000       0.08333333 </v>
   <v>       0.50000000       0.25000000       0.08333333 </v>
   <v>      -0.41666667       0.25000000       0.08333333 </v>
   <v>      -0.33333333       0.25000000       0.08333333 </v>
   <v>      -0.25000000       0.25000000       0.08333333 </v>
   <v>      -0.16666667       0.25000000       0.08333333 </v>
   <v>      -0.08333333       0.25000000       0.08333333 </v>
   <v>      -0.00000000       0.33333333       0.08333333 </v>
   <v>       0.08333333       0.33333333       0.08333333 </v>
   <v>       0.16666667       0.33333333       0.08333333 </v>
   <v>       0.25000000       0.33333333       0.08333333 </v>
   <v>       0.33333333       0.33333333       0.08333333 </v>
   <v>       0.41666667       0.33333333       0.08333333 </v>
   <v>       0.50000000       0.33333333       0.08333333 </v>
   <v>      -0.41666667       0.33333333       0.08333333 </v>
   <v>      -0.33333333       0.33333333       0.08333333 </v>
   <v>      -0.25000000       0.33333333       0.08333333 </v>
   <v>      -0.16666667       0.33333333       0.08333333 </v>
   <v>      -0.08333333       0.33333333       0.08333333 </v>
   <v>       0.00000000       0.41666667       0.08333333 </v>
   <v>       0.08333333       0.41666667       0.08333333 </v>
   <v>       0.16666667       0.41666667       0.08333333 </v>
   <v>       0.25000000       0.41666667       0.08333333 </v>
   <v>       0.33333333       0.41666667       0.08333333 </v>
   <v>       0.41666667       0.41666667       0.08333333 </v>
   <v>       0.50000000       0.41666667       0.08333333 </v>
   <v>      -0.41666667       0.41666667       0.08333333 </v>
   <v>      -0.33333333       0.41666667       0.08333333 </v>
   <v>      -0.25000000       0.41666667       0.08333333 </v>
   <v>      -0.16666667       0.41666667       0.08333333 </v>
   <v>      -0.08333333       0.41666667       0.08333333 </v>
   <v>      -0.00000000       0.50000000       0.08333333 </v>
   <v>       0.08333333       0.50000000       0.08333333 </v>
   <v>       0.16666667       0.50000000       0.08333333 </v>
   <v>       0.25000000       0.50000000       0.08333333 </v>
   <v>       0.33333333       0.50000000       0.08333333 </v>
   <v>       0.41666667       0.50000000       0.08333333 </v>
   <v>       0.50000000       0.50000000       0.08333333 </v>
   <v>      -0.41666667       0.50000000       0.08333333 </v>
   <v>      -0.33333333       0.50000000       0.08333333 </v>
   <v>      -0.25000000       0.50000000       0.08333333 </v>
   <v>      -0.16666667       0.50000000       0.08333333 </v>
   <v>      -0.08333333       0.50000000       0.08333333 </v>
   <v>      -0.00000000      -0.41666667       0.08333333 </v>
   <v>       0.08333333      -0.41666667       0.08333333 </v>
   <v>       0.16666667      -0.41666667       0.08333333 </v>
   <v>       0.25000000      -0.41666667       0.08333333 </v>
   <v>       0.33333333      -0.41666667       0.08333333 </v>
   <v>       0.41666667      -0.41666667       0.08333333 </v>
   <v>       0.50000000      -0.41666667       0.08333333 </v>
   <v>      -0.41666667      -0.41666667       0.08333333 </v>
   <v>      -0.33333333      -0.41666667       0.08333333 </v>
   <v>      -0.25000000      -0.41666667       0.08333333 </v>
   <v>      -0.16666667      -0.41666667       0.08333333 </v>
   <v>      -0.08333333      -0.41666667       0.08333333 </v>
   <v>       0.00000000      -0.33333333       0.08333333 </v>
   <v>       0.08333333      -0.33333333       0.08333333 </v>
   <v>       0.16666667      -0.33333333       0.08333333 </v>
   <v>       0.25000000      -0.33333333       0.08333333 </v>
   <v>       0.33333333      -0.33333333       0.08333333 </v>
   <v>       0.41666667      -0.33333333       0.08333333 </v>
   <v>       0.50000000      -0.33333333       0.08333333 </v>
   <v>      -0.41666667      -0.33333333       0.08333333 </v>
   <v>      -0.33333333      -0.33333333       0.08333333 </v>
   <v>      -0.25000000      -0.33333333       0.08333333 </v>
   <v>      -0.16666667      -0.33333333       0.08333333 </v>
   <v>      -0.08333333      -0.33333333       0.08333333 </v>
   <v>      -0.00000000      -0.25000000       0.08333333 </v>
   <v>       0.08333333      -0.25000000       0.08333333 </v>
   <v>       0.16666667      -0.25000000       0.08333333 </v>
   <v>       0.25000000      -0.25000000       0.08333333 </v>
   <v>       0.33333333      -0.25000000       0.08333333 </v>
   <v>       0.41666667      -0.25000000       0.08333333 </v>
   <v>       0.50000000      -0.25000000       0.08333333 </v>
   <v>      -0.41666667      -0.25000000       0.08333333 </v>
   <v>      -0.33333333      -0.25000000       0.08333333 </v>
   <v>      -0.25000000      -0.25000000       0.08333333 </v>
   <v>      -0.16666667      -0.25000000       0.08333333 </v>
   <v>      -0.08333333      -0.25000000       0.08333333 </v>
   <v>      -0.00000000      -0.16666667       0.08333333 </v>
   <v>       0.08333333      -0.16666667       0.08333333 </v>
   <v>       0.16666667      -0.16666667       0.08333333 </v>
   <v>       0.25000000      -0.16666667       0.08333333 </v>
   <v>       0.33333333      -0.16666667       0.08333333 </v>
   <v>       0.41666667      -0.16666667       0.08333333 </v>
   <v>       0.50000000      -0.16666667       0.08333333 </v>
   <v>      -0.41666667      -0.16666667       0.08333333 </v>
   <v>      -0.33333333      -0.16666667       0.08333333 </v>
   <v>      -0.25000000      -0.16666667       0.08333333 </v>
   <v>      -0.16666667      -0.16666667       0.08333333 </v>
   <v>      -0.08333333      -0.16666667       0.08333333 </v>
   <v>       0.00000000      -0.08333333       0.08333333 </v>
   <v>       0.08333333      -0.08333333       0.08333333 </v>
   <v>       0.16666667      -0.08333333       0.08333333 </v>
   <v>       0.25000000      -0.08333333       0.08333333 </v>
   <v>       0.33333333      -0.08333333       0.08333333 </v>
   <v>       0.41666667      -0.08333333       0.08333333 </v>
   <v>       0.50000000      -0.08333333       0.08333333 </v>
   <v>      -0.41666667      -0.08333333       0.08333333 </v>
   <v>      -0.33333333      -0.08333333       0.08333333 </v>
   <v>      -0.25000000      -0.08333333       0.08333333 </v>
   <v>      -0.16666667      -0.08333333       0.08333333 </v>
   <v>      -0.08333333      -0.08333333       0.08333333 </v>
   <v>       0.00000000       0.00000000       0.16666667 </v>
   <v>       0.08333333       0.00000000       0.16666667 </v>
   <v>       0.16666667       0.00000000       0.16666667 </v>
   <v>       0.25000000       0.00000000       0.16666667 </v>
   <v>       0.33333333       0.00000000       0.16666667 </v>
   <v>       0.41666667       0.00000000       0.16666667 </v>
   <v>       0.50000000       0.00000000       0.16666667 </v>
   <v>      -0.41666667      -0.00000000       0.16666667 </v>
   <v>      -0.33333333      -0.00000000       0.16666667 </v>
   <v>      -0.25000000      -0.00000000       0.16666667 </v>
   <v>      -0.16666667       0.00000000       0.16666667 </v>
   <v>      -0.08333333       0.00000000       0.16666667 </v>
   <v>       0.00000000       0.08333333       0.16666667 </v>
   <v>       0.08333333       0.08333333       0.16666667 </v>
   <v>       0.16666667       0.08333333       0.16666667 </v>
   <v>       0.25000000       0.08333333       0.16666667 </v>
   <v>       0.33333333       0.08333333       0.16666667 </v>
   <v>       0.41666667       0.08333333       0.16666667 </v>
   <v>       0.50000000       0.08333333       0.16666667 </v>
   <v>      -0.41666667       0.08333333       0.16666667 </v>
   <v>      -0.33333333       0.08333333       0.16666667 </v>
   <v>      -0.25000000       0.08333333       0.16666667 </v>
   <v>      -0.16666667       0.08333333       0.16666667 </v>
   <v>      -0.08333333       0.08333333       0.16666667 </v>
   <v>       0.00000000       0.16666667       0.16666667 </v>
   <v>       0.08333333       0.16666667       0.16666667 </v>
   <v>       0.16666667       0.16666667       0.16666667 </v>
   <v>       0.25000000       0.16666667       0.16666667 </v>
   <v>       0.33333333       0.16666667       0.16666667 </v>
   <v>       0.41666667       0.16666667       0.16666667 </v>
   <v>       0.50000000       0.16666667       0.16666667 </v>
   <v>      -0.41666667       0.16666667       0.16666667 </v>
   <v>      -0.33333333       0.16666667       0.16666667 </v>
   <v>      -0.25000000       0.16666667       0.16666667 </v>
   <v>      -0.16666667       0.16666667       0.16666667 </v>
   <v>      -0.08333333       0.16666667       0.16666667 </v>
   <v>       0.00000000       0.25000000       0.16666667 </v>
   <v>       0.08333333       0.25000000       0.16666667 </v>
   <v>       0.16666667       0.25000000       0.16666667 </v>
   <v>       0.25000000       0.25000000       0.16666667 </v>
   <v>       0.33333333       0.25000000       0.16666667 </v>
   <v>       0.41666667       0.25000000       0.16666667 </v>
   <v>       0.50000000       0.25000000       0.16666667 </v>
   <v>      -0.41666667       0.25000000       0.16666667 </v>
   <v>      -0.33333333       0.25000000       0.16666667 </v>
   <v>      -0.25000000       0.25000000       0.16666667 </v>
   <v>      -0.16666667       0.25000000       0.16666667 </v>
   <v>      -0.08333333       0.25000000       0.16666667 </v>
   <v>       0.00000000       0.33333333       0.16666667 </v>
   <v>       0.08333333       0.33333333       0.16666667 </v>
   <v>       0.16666667       0.33333333       0.16666667 </v>
   <v>       0.25000000       0.33333333       0.16666667 </v>
   <v>       0.33333333       0.33333333       0.16666667 </v>
   <v>       0.41666667       0.33333333       0.16666667 </v>
   <v>       0.50000000       0.33333333       0.16666667 </v>
   <v>      -0.41666667       0.33333333       0.16666667 </v>
   <v>      -0.33333333       0.33333333       0.16666667 </v>
   <v>      -0.25000000       0.33333333       0.16666667 </v>
   <v>      -0.16666667       0.33333333       0.16666667 </v>
   <v>      -0.08333333       0.33333333       0.16666667 </v>
   <v>       0.00000000       0.41666667       0.16666667 </v>
   <v>       0.08333333       0.41666667       0.16666667 </v>
   <v>       0.16666667       0.41666667       0.16666667 </v>
   <v>       0.25000000       0.41666667       0.16666667 </v>
   <v>       0.33333333       0.41666667       0.16666667 </v>
   <v>       0.41666667       0.41666667       0.16666667 </v>
   <v>       0.50000000       0.41666667       0.16666667 </v>
   <v>      -0.41666667       0.41666667       0.16666667 </v>
   <v>      -0.33333333       0.41666667       0.16666667 </v>
   <v>      -0.25000000       0.41666667       0.16666667 </v>
   <v>      -0.16666667       0.41666667       0.16666667 </v>
   <v>      -0.08333333       0.41666667       0.16666667 </v>
   <v>      -0.00000000       0.50000000       0.16666667 </v>
   <v>       0.08333333       0.50000000       0.16666667 </v>
   <v>       0.16666667       0.50000000       0.16666667 </v>
   <v>       0.25000000       0.50000000       0.16666667 </v>
   <v>       0.33333333       0.50000000       0.16666667 </v>
   <v>       0.41666667       0.50000000       0.16666667 </v>
   <v>       0.50000000       0.50000000       0.16666667 </v>
   <v>      -0.41666667       0.50000000       0.16666667 </v>
   <v>      -0.33333333       0.50000000       0.16666667 </v>
   <v>      -0.25000000       0.50000000       0.16666667 </v>
   <v>      -0.16666667       0.50000000       0.16666667 </v>
   <v>      -0.08333333       0.50000000       0.16666667 </v>
   <v>       0.00000000      -0.41666667       0.16666667 </v>
   <v>       0.08333333      -0.41666667       0.16666667 </v>
   <v>       0.16666667      -0.41666667       0.16666667 </v>
   <v>       0.25000000      -0.41666667       0.16666667 </v>
   <v>       0.33333333      -0.41666667       0.16666667 </v>
   <v>       0.41666667      -0.41666667       0.16666667 </v>
   <v>       0.50000000      -0.41666667       0.16666667 </v>
   <v>      -0.41666667      -0.41666667       0.16666667 </v>
   <v>      -0.33333333      -0.41666667       0.16666667 </v>
   <v>      -0.25000000      -0.41666667       0.16666667 </v>
   <v>      -0.16666667      -0.41666667       0.16666667 </v>
   <v>      -0.08333333      -0.41666667       0.16666667 </v>
   <v>      -0.00000000      -0.33333333       0.16666667 </v>
   <v>       0.08333333      -0.33333333       0.16666667 </v>
   <v>       0.16666667      -0.33333333       0.16666667 </v>
   <v>       0.25000000      -0.33333333       0.16666667 </v>
   <v>       0.33333333      -0.33333333       0.16666667 </v>
   <v>       0.41666667      -0.33333333       0.16666667 </v>
   <v>       0.50000000      -0.33333333       0.16666667 </v>
   <v>      -0.41666667      -0.33333333       0.16666667 </v>
   <v>      -0.33333333      -0.33333333       0.16666667 </v>
   <v>      -0.25000000      -0.33333333       0.16666667 </v>
   <v>      -0.16666667      -0.33333333       0.16666667 </v>
   <v>      -0.08333333      -0.33333333       0.16666667 </v>
   <v>       0.00000000      -0.25000000       0.16666667 </v>
   <v>       0.08333333      -0.25000000       0.16666667 </v>
   <v>       0.16666667      -0.25000000       0.16666667 </v>
   <v>       0.25000000      -0.25000000       0.16666667 </v>
   <v>       0.33333333      -0.25000000       0.16666667 </v>
   <v>       0.41666667      -0.25000000       0.16666667 </v>
   <v>       0.50000000      -0.25000000       0.16666667 </v>
   <v>      -0.41666667      -0.25000000       0.16666667 </v>
   <v>      -0.33333333      -0.25000000       0.16666667 </v>
   <v>      -0.25000000      -0.25000000       0.16666667 </v>
   <v>      -0.16666667      -0.25000000       0.16666667 </v>
   <v>      -0.08333333      -0.25000000       0.16666667 </v>
   <v>      -0.00000000      -0.16666667       0.16666667 </v>
   <v>       0.08333333      -0.16666667       0.16666667 </v>
   <v>       0.16666667      -0.16666667       0.16666667 </v>
   <v>       0.25000000      -0.16666667       0.16666667 </v>
   <v>       0.33333333      -0.16666667       0.16666667 </v>
   <v>       0.41666667      -0.16666667       0.16666667 </v>
   <v>       0.50000000      -0.16666667       0.16666667 </v>
   <v>      -0.41666667      -0.16666667       0.16666667 </v>
   <v>      -0.33333333      -0.16666667       0.16666667 </v>
   <v>      -0.25000000      -0.16666667       0.16666667 </v>
   <v>      -0.16666667      -0.16666667       0.16666667 </v>
   <v>      -0.08333333      -0.16666667       0.16666667 </v>
   <v>       0.00000000      -0.08333333       0.16666667 </v>
   <v>       0.08333333      -0.08333333       0.16666667 </v>
   <v>       0.16666667      -0.08333333       0.16666667 </v>
   <v>       0.25000000      -0.08333333       0.16666667 </v>
   <v>       0.33333333      -0.08333333       0.16666667 </v>
   <v>       0.41666667      -0.08333333       0.16666667 </v>
   <v>       0.50000000      -0.08333333       0.16666667 </v>
   <v>      -0.41666667      -0.08333333       0.16666667 </v>
   <v>      -0.33333333      -0.08333333       0.16666667 </v>
   <v>      -0.25000000      -0.08333333       0.16666667 </v>
   <v>      -0.16666667      -0.08333333       0.16666667 </v>
   <v>      -0.08333333      -0.08333333       0.16666667 </v>
   <v>      -0.00000000       0.00000000       0.25000000 </v>
   <v>       0.08333333       0.00000000       0.25000000 </v>
   <v>       0.16666667       0.00000000       0.25000000 </v>
   <v>       0.25000000       0.00000000       0.25000000 </v>
   <v>       0.33333333       0.00000000       0.25000000 </v>
   <v>       0.41666667       0.00000000       0.25000000 </v>
   <v>       0.50000000       0.00000000       0.25000000 </v>
   <v>      -0.41666667       0.00000000       0.25000000 </v>
   <v>      -0.33333333      -0.00000000       0.25000000 </v>
   <v>      -0.25000000      -0.00000000       0.25000000 </v>
   <v>      -0.16666667      -0.00000000       0.25000000 </v>
   <v>      -0.08333333       0.00000000       0.25000000 </v>
   <v>       0.00000000       0.08333333       0.25000000 </v>
   <v>       0.08333333       0.08333333       0.25000000 </v>
   <v>       0.16666667       0.08333333       0.25000000 </v>
   <v>       0.25000000       0.08333333       0.25000000 </v>
   <v>       0.33333333       0.08333333       0.25000000 </v>
   <v>       0.41666667       0.08333333       0.25000000 </v>
   <v>       0.50000000       0.08333333       0.25000000 </v>
   <v>      -0.41666667       0.08333333       0.25000000 </v>
   <v>      -0.33333333       0.08333333       0.25000000 </v>
   <v>      -0.25000000       0.08333333       0.25000000 </v>
   <v>      -0.16666667       0.08333333       0.25000000 </v>
   <v>      -0.08333333       0.08333333       0.25000000 </v>
   <v>       0.00000000       0.16666667       0.25000000 </v>
   <v>       0.08333333       0.16666667       0.25000000 </v>
   <v>       0.16666667       0.16666667       0.25000000 </v>
   <v>       0.25000000       0.16666667       0.25000000 </v>
   <v>       0.33333333       0.16666667       0.25000000 </v>
   <v>       0.41666667       0.16666667       0.25000000 </v>
   <v>       0.50000000       0.16666667       0.25000000 </v>
   <v>      -0.41666667       0.16666667       0.25000000 </v>
   <v>      -0.33333333       0.16666667       0.25000000 </v>
   <v>      -0.25000000       0.16666667       0.25000000 </v>
   <v>      -0.16666667       0.16666667       0.25000000 </v>
   <v>      -0.08333333       0.16666667       0.25000000 </v>
   <v>       0.00000000       0.25000000       0.25000000 </v>
   <v>       0.08333333       0.25000000       0.25000000 </v>
   <v>       0.16666667       0.25000000       0.25000000 </v>
   <v>       0.25000000       0.25000000       0.25000000 </v>
   <v>       0.33333333       0.25000000       0.25000000 </v>
   <v>       0.41666667       0.25000000       0.25000000 </v>
   <v>       0.50000000       0.25000000       0.25000000 </v>
   <v>      -0.41666667       0.25000000       0.25000000 </v>
   <v>      -0.33333333       0.25000000       0.25000000 </v>
   <v>      -0.25000000       0.25000000       0.25000000 </v>
   <v>      -0.16666667       0.25000000       0.25000000 </v>
   <v>      -0.08333333       0.25000000       0.25000000 </v>
   <v>       0.00000000       0.33333333       0.25000000 </v>
   <v>       0.08333333       0.33333333       0.25000000 </v>
   <v>       0.16666667       0.33333333       0.25000000 </v>
   <v>       0.25000000       0.33333333       0.25000000 </v>
   <v>       0.33333333       0.33333333       0.25000000 </v>
   <v>       0.41666667       0.33333333       0.25000000 </v>
   <v>       0.50000000       0.33333333       0.25000000 </v>
   <v>      -0.41666667       0.33333333       0.25000000 </v>
   <v>      -0.33333333       0.33333333       0.25000000 </v>
   <v>      -0.25000000       0.33333333       0.25000000 </v>
   <v>      -0.16666667       0.33333333       0.25000000 </v>
   <v>      -0.08333333       0.33333333       0.25000000 </v>
   <v>       0.00000000       0.41666667       0.25000000 </v>
   <v>       0.08333333       0.41666667       0.25000000 </v>
   <v>       0.16666667       0.41666667       0.25000000 </v>
   <v>       0.25000000       0.41666667       0.25000000 </v>
   <v>       0.33333333       0.41666667       0.25000000 </v>
   <v>       0.41666667       0.41666667       0.25000000 </v>
   <v>       0.50000000       0.41666667       0.25000000 </v>
   <v>      -0.41666667       0.41666667       0.25000000 </v>
   <v>      -0.33333333       0.41666667       0.25000000 </v>
   <v>      -0.25000000       0.41666667       0.25000000 </v>
   <v>      -0.16666667       0.41666667       0.25000000 </v>
   <v>      -0.08333333       0.41666667       0.25000000 </v>
   <v>       0.00000000       0.50000000       0.25000000 </v>
   <v>       0.08333333       0.50000000       0.25000000 </v>
   <v>       0.16666667       0.50000000       0.25000000 </v>
   <v>       0.25000000       0.50000000       0.25000000 </v>
   <v>       0.33333333       0.50000000       0.25000000 </v>
   <v>       0.41666667       0.50000000       0.25000000 </v>
   <v>       0.50000000       0.50000000       0.25000000 </v>
   <v>      -0.41666667       0.50000000       0.25000000 </v>
   <v>      -0.33333333       0.50000000       0.25000000 </v>
   <v>      -0.25000000       0.50000000       0.25000000 </v>
   <v>      -0.16666667       0.50000000       0.25000000 </v>
   <v>      -0.08333333       0.50000000       0.25000000 </v>
   <v>       0.00000000      -0.41666667       0.25000000 </v>
   <v>       0.08333333      -0.41666667       0.25000000 </v>
   <v>       0.16666667      -0.41666667       0.25000000 </v>
   <v>       0.25000000      -0.41666667       0.25000000 </v>
   <v>       0.33333333      -0.41666667       0.25000000 </v>
   <v>       0.41666667      -0.41666667       0.25000000 </v>
   <v>       0.50000000      -0.41666667       0.25000000 </v>
   <v>      -0.41666667      -0.41666667       0.25000000 </v>
   <v>      -0.33333333      -0.41666667       0.25000000 </v>
   <v>      -0.25000000      -0.41666667       0.25000000 </v>
   <v>      -0.16666667      -0.41666667       0.25000000 </v>
   <v>      -0.08333333      -0.41666667       0.25000000 </v>
   <v>      -0.00000000      -0.33333333       0.25000000 </v>
   <v>       0.08333333      -0.33333333       0.25000000 </v>
   <v>       0.16666667      -0.33333333       0.25000000 </v>
   <v>       0.25000000      -0.33333333       0.25000000 </v>
   <v>       0.33333333      -0.33333333       0.25000000 </v>
   <v>       0.41666667      -0.33333333       0.25000000 </v>
   <v>       0.50000000      -0.33333333       0.25000000 </v>
   <v>      -0.41666667      -0.33333333       0.25000000 </v>
   <v>      -0.33333333      -0.33333333       0.25000000 </v>
   <v>      -0.25000000      -0.33333333       0.25000000 </v>
   <v>      -0.16666667      -0.33333333       0.25000000 </v>
   <v>      -0.08333333      -0.33333333       0.25000000 </v>
   <v>      -0.00000000      -0.25000000       0.25000000 </v>
   <v>       0.08333333      -0.25000000       0.25000000 </v>
   <v>       0.16666667      -0.25000000       0.25000000 </v>
   <v>       0.25000000      -0.25000000       0.25000000 </v>
   <v>       0.33333333      -0.25000000       0.25000000 </v>
   <v>       0.41666667      -0.25000000       0.25000000 </v>
   <v>       0.50000000      -0.25000000       0.25000000 </v>
   <v>      -0.41666667      -0.25000000       0.25000000 </v>
   <v>      -0.33333333      -0.25000000       0.25000000 </v>
   <v>      -0.25000000      -0.25000000       0.25000000 </v>
   <v>      -0.16666667      -0.25000000       0.25000000 </v>
   <v>      -0.08333333      -0.25000000       0.25000000 </v>
   <v>      -0.00000000      -0.16666667       0.25000000 </v>
   <v>       0.08333333      -0.16666667       0.25000000 </v>
   <v>       0.16666667      -0.16666667       0.25000000 </v>
   <v>       0.25000000      -0.16666667       0.25000000 </v>
   <v>       0.33333333      -0.16666667       0.25000000 </v>
   <v>       0.41666667      -0.16666667       0.25000000 </v>
   <v>       0.50000000      -0.16666667       0.25000000 </v>
   <v>      -0.41666667      -0.16666667       0.25000000 </v>
   <v>      -0.33333333      -0.16666667       0.25000000 </v>
   <v>      -0.25000000      -0.16666667       0.25000000 </v>
   <v>      -0.16666667      -0.16666667       0.25000000 </v>
   <v>      -0.08333333      -0.16666667       0.25000000 </v>
   <v>      -0.00000000      -0.08333333       0.25000000 </v>
   <v>       0.08333333      -0.08333333       0.25000000 </v>
   <v>       0.16666667      -0.08333333       0.25000000 </v>
   <v>       0.25000000      -0.08333333       0.25000000 </v>
   <v>       0.33333333      -0.08333333       0.25000000 </v>
   <v>       0.41666667      -0.08333333       0.25000000 </v>
   <v>       0.50000000      -0.08333333       0.25000000 </v>
   <v>      -0.41666667      -0.08333333       0.25000000 </v>
   <v>      -0.33333333      -0.08333333       0.25000000 </v>
   <v>      -0.25000000      -0.08333333       0.25000000 </v>
   <v>      -0.16666667      -0.08333333       0.25000000 </v>
   <v>      -0.08333333      -0.08333333       0.25000000 </v>
   <v>      -0.00000000       0.00000000       0.33333333 </v>
   <v>       0.08333333       0.00000000       0.33333333 </v>
   <v>       0.16666667       0.00000000       0.33333333 </v>
   <v>       0.25000000       0.00000000       0.33333333 </v>
   <v>       0.33333333       0.00000000       0.33333333 </v>
   <v>       0.41666667       0.00000000       0.33333333 </v>
   <v>       0.50000000       0.00000000       0.33333333 </v>
   <v>      -0.41666667       0.00000000       0.33333333 </v>
   <v>      -0.33333333      -0.00000000       0.33333333 </v>
   <v>      -0.25000000      -0.00000000       0.33333333 </v>
   <v>      -0.16666667      -0.00000000       0.33333333 </v>
   <v>      -0.08333333      -0.00000000       0.33333333 </v>
   <v>      -0.00000000       0.08333333       0.33333333 </v>
   <v>       0.08333333       0.08333333       0.33333333 </v>
   <v>       0.16666667       0.08333333       0.33333333 </v>
   <v>       0.25000000       0.08333333       0.33333333 </v>
   <v>       0.33333333       0.08333333       0.33333333 </v>
   <v>       0.41666667       0.08333333       0.33333333 </v>
   <v>       0.50000000       0.08333333       0.33333333 </v>
   <v>      -0.41666667       0.08333333       0.33333333 </v>
   <v>      -0.33333333       0.08333333       0.33333333 </v>
   <v>      -0.25000000       0.08333333       0.33333333 </v>
   <v>      -0.16666667       0.08333333       0.33333333 </v>
   <v>      -0.08333333       0.08333333       0.33333333 </v>
   <v>       0.00000000       0.16666667       0.33333333 </v>
   <v>       0.08333333       0.16666667       0.33333333 </v>
   <v>       0.16666667       0.16666667       0.33333333 </v>
   <v>       0.25000000       0.16666667       0.33333333 </v>
   <v>       0.33333333       0.16666667       0.33333333 </v>
   <v>       0.41666667       0.16666667       0.33333333 </v>
   <v>       0.50000000       0.16666667       0.33333333 </v>
   <v>      -0.41666667       0.16666667       0.33333333 </v>
   <v>      -0.33333333       0.16666667       0.33333333 </v>
   <v>      -0.25000000       0.16666667       0.33333333 </v>
   <v>      -0.16666667       0.16666667       0.33333333 </v>
   <v>      -0.08333333       0.16666667       0.33333333 </v>
   <v>       0.00000000       0.25000000       0.33333333 </v>
   <v>       0.08333333       0.25000000       0.33333333 </v>
   <v>       0.16666667       0.25000000       0.33333333 </v>
   <v>       0.25000000       0.25000000       0.33333333 </v>
   <v>       0.33333333       0.25000000       0.33333333 </v>
   <v>       0.41666667       0.25000000       0.33333333 </v>
   <v>       0.50000000       0.25000000       0.33333333 </v>
   <v>      -0.41666667       0.25000000       0.33333333 </v>
   <v>      -0.33333333       0.25000000       0.33333333 </v>
   <v>      -0.25000000       0.25000000       0.33333333 </v>
   <v>      -0.16666667       0.25000000       0.33333333 </v>
   <v>      -0.08333333       0.25000000       0.33333333 </v>
   <v>       0.00000000       0.33333333       0.33333333 </v>
   <v>       0.08333333       0.33333333       0.33333333 </v>
   <v>       0.16666667       0.33333333       0.33333333 </v>
   <v>       0.25000000       0.33333333       0.33333333 </v>
   <v>       0.33333333       0.33333333       0.33333333 </v>
   <v>       0.41666667       0.33333333       0.33333333 </v>
   <v>       0.50000000       0.33333333       0.33333333 </v>
   <v>      -0.41666667       0.33333333       0.33333333 </v>
   <v>      -0.33333333       0.33333333       0.33333333 </v>
   <v>      -0.25000000       0.33333333       0.33333333 </v>
   <v>      -0.16666667       0.33333333       0.33333333 </v>
   <v>      -0.08333333       0.33333333       0.33333333 </v>
   <v>       0.00000000       0.41666667       0.33333333 </v>
   <v>       0.08333333       0.41666667       0.33333333 </v>
   <v>       0.16666667       0.41666667       0.33333333 </v>
   <v>       0.25000000       0.41666667       0.33333333 </v>
   <v>       0.33333333       0.41666667       0.33333333 </v>
   <v>       0.41666667       0.41666667       0.33333333 </v>
   <v>       0.50000000       0.41666667       0.33333333 </v>
   <v>      -0.41666667       0.41666667       0.33333333 </v>
   <v>      -0.33333333       0.41666667       0.33333333 </v>
   <v>      -0.25000000       0.41666667       0.33333333 </v>
   <v>      -0.16666667       0.41666667       0.33333333 </v>
   <v>      -0.08333333       0.41666667       0.33333333 </v>
   <v>       0.00000000       0.50000000       0.33333333 </v>
   <v>       0.08333333       0.50000000       0.33333333 </v>
   <v>       0.16666667       0.50000000       0.33333333 </v>
   <v>       0.25000000       0.50000000       0.33333333 </v>
   <v>       0.33333333       0.50000000       0.33333333 </v>
   <v>       0.41666667       0.50000000       0.33333333 </v>
   <v>       0.50000000       0.50000000       0.33333333 </v>
   <v>      -0.41666667       0.50000000       0.33333333 </v>
   <v>      -0.33333333       0.50000000       0.33333333 </v>
   <v>      -0.25000000       0.50000000       0.33333333 </v>
   <v>      -0.16666667       0.50000000       0.33333333 </v>
   <v>      -0.08333333       0.50000000       0.33333333 </v>
   <v>       0.00000000      -0.41666667       0.33333333 </v>
   <v>       0.08333333      -0.41666667       0.33333333 </v>
   <v>       0.16666667      -0.41666667       0.33333333 </v>
   <v>       0.25000000      -0.41666667       0.33333333 </v>
   <v>       0.33333333      -0.41666667       0.33333333 </v>
   <v>       0.41666667      -0.41666667       0.33333333 </v>
   <v>       0.50000000      -0.41666667       0.33333333 </v>
   <v>      -0.41666667      -0.41666667       0.33333333 </v>
   <v>      -0.33333333      -0.41666667       0.33333333 </v>
   <v>      -0.25000000      -0.41666667       0.33333333 </v>
   <v>      -0.16666667      -0.41666667       0.33333333 </v>
   <v>      -0.08333333      -0.41666667       0.33333333 </v>
   <v>      -0.00000000      -0.33333333       0.33333333 </v>
   <v>       0.08333333      -0.33333333       0.33333333 </v>
   <v>       0.16666667      -0.33333333       0.33333333 </v>
   <v>       0.25000000      -0.33333333       0.33333333 </v>
   <v>       0.33333333      -0.33333333       0.33333333 </v>
   <v>       0.41666667      -0.33333333       0.33333333 </v>
   <v>       0.50000000      -0.33333333       0.33333333 </v>
   <v>      -0.41666667      -0.33333333       0.33333333 </v>
   <v>      -0.33333333      -0.33333333       0.33333333 </v>
   <v>      -0.25000000      -0.33333333       0.33333333 </v>
   <v>      -0.16666667      -0.33333333       0.33333333 </v>
   <v>      -0.08333333      -0.33333333       0.33333333 </v>
   <v>      -0.00000000      -0.25000000       0.33333333 </v>
   <v>       0.08333333      -0.25000000       0.33333333 </v>
   <v>       0.16666667      -0.25000000       0.33333333 </v>
   <v>       0.25000000      -0.25000000       0.33333333 </v>
   <v>       0.33333333      -0.25000000       0.33333333 </v>
   <v>       0.41666667      -0.25000000       0.33333333 </v>
   <v>       0.50000000      -0.25000000       0.33333333 </v>
   <v>      -0.41666667      -0.25000000       0.33333333 </v>
   <v>      -0.33333333      -0.25000000       0.33333333 </v>
   <v>      -0.25000000      -0.25000000       0.33333333 </v>
   <v>      -0.16666667      -0.25000000       0.33333333 </v>
   <v>      -0.08333333      -0.25000000       0.33333333 </v>
   <v>      -0.00000000      -0.16666667       0.33333333 </v>
   <v>       0.08333333      -0.16666667       0.33333333 </v>
   <v>       0.16666667      -0.16666667       0.33333333 </v>
   <v>       0.25000000      -0.16666667       0.33333333 </v>
   <v>       0.33333333      -0.16666667       0.33333333 </v>
   <v>       0.41666667      -0.16666667       0.33333333 </v>
   <v>       0.50000000      -0.16666667       0.33333333 </v>
   <v>      -0.41666667      -0.16666667       0.33333333 </v>
   <v>      -0.33333333      -0.16666667       0.33333333 </v>
   <v>      -0.25000000      -0.16666667       0.33333333 </v>
   <v>      -0.16666667      -0.16666667       0.33333333 </v>
   <v>      -0.08333333      -0.16666667       0.33333333 </v>
   <v>       0.00000000      -0.08333333       0.33333333 </v>
   <v>       0.08333333      -0.08333333       0.33333333 </v>
   <v>       0.16666667      -0.08333333       0.33333333 </v>
   <v>       0.25000000      -0.08333333       0.33333333 </v>
   <v>       0.33333333      -0.08333333       0.33333333 </v>
   <v>       0.41666667      -0.08333333       0.33333333 </v>
   <v>       0.50000000      -0.08333333       0.33333333 </v>
   <v>      -0.41666667      -0.08333333       0.33333333 </v>
   <v>      -0.33333333      -0.08333333       0.33333333 </v>
   <v>      -0.25000000      -0.08333333       0.33333333 </v>
   <v>      -0.16666667      -0.08333333       0.33333333 </v>
   <v>      -0.08333333      -0.08333333       0.33333333 </v>
   <v>       0.00000000       0.00000000       0.41666667 </v>
   <v>       0.08333333       0.00000000       0.41666667 </v>
   <v>       0.16666667       0.00000000       0.41666667 </v>
   <v>       0.25000000       0.00000000       0.41666667 </v>
   <v>       0.33333333       0.00000000       0.41666667 </v>
   <v>       0.41666667       0.00000000       0.41666667 </v>
   <v>       0.50000000       0.00000000       0.41666667 </v>
   <v>      -0.41666667      -0.00000000       0.41666667 </v>
   <v>      -0.33333333      -0.00000000       0.41666667 </v>
   <v>      -0.25000000      -0.00000000       0.41666667 </v>
   <v>      -0.16666667       0.00000000       0.41666667 </v>
   <v>      -0.08333333      -0.00000000       0.41666667 </v>
   <v>       0.00000000       0.08333333       0.41666667 </v>
   <v>       0.08333333       0.08333333       0.41666667 </v>
   <v>       0.16666667       0.08333333       0.41666667 </v>
   <v>       0.25000000       0.08333333       0.41666667 </v>
   <v>       0.33333333       0.08333333       0.41666667 </v>
   <v>       0.41666667       0.08333333       0.41666667 </v>
   <v>       0.50000000       0.08333333       0.41666667 </v>
   <v>      -0.41666667       0.08333333       0.41666667 </v>
   <v>      -0.33333333       0.08333333       0.41666667 </v>
   <v>      -0.25000000       0.08333333       0.41666667 </v>
   <v>      -0.16666667       0.08333333       0.41666667 </v>
   <v>      -0.08333333       0.08333333       0.41666667 </v>
   <v>      -0.00000000       0.16666667       0.41666667 </v>
   <v>       0.08333333       0.16666667       0.41666667 </v>
   <v>       0.16666667       0.16666667       0.41666667 </v>
   <v>       0.25000000       0.16666667       0.41666667 </v>
   <v>       0.33333333       0.16666667       0.41666667 </v>
   <v>       0.41666667       0.16666667       0.41666667 </v>
   <v>       0.50000000       0.16666667       0.41666667 </v>
   <v>      -0.41666667       0.16666667       0.41666667 </v>
   <v>      -0.33333333       0.16666667       0.41666667 </v>
   <v>      -0.25000000       0.16666667       0.41666667 </v>
   <v>      -0.16666667       0.16666667       0.41666667 </v>
   <v>      -0.08333333       0.16666667       0.41666667 </v>
   <v>       0.00000000       0.25000000       0.41666667 </v>
   <v>       0.08333333       0.25000000       0.41666667 </v>
   <v>       0.16666667       0.25000000       0.41666667 </v>
   <v>       0.25000000       0.25000000       0.41666667 </v>
   <v>       0.33333333       0.25000000       0.41666667 </v>
   <v>       0.41666667       0.25000000       0.41666667 </v>
   <v>       0.50000000       0.25000000       0.41666667 </v>
   <v>      -0.41666667       0.25000000       0.41666667 </v>
   <v>      -0.33333333       0.25000000       0.41666667 </v>
   <v>      -0.25000000       0.25000000       0.41666667 </v>
   <v>      -0.16666667       0.25000000       0.41666667 </v>
   <v>      -0.08333333       0.25000000       0.41666667 </v>
   <v>       0.00000000       0.33333333       0.41666667 </v>
   <v>       0.08333333       0.33333333       0.41666667 </v>
   <v>       0.16666667       0.33333333       0.41666667 </v>
   <v>       0.25000000       0.33333333       0.41666667 </v>
   <v>       0.33333333       0.33333333       0.41666667 </v>
   <v>       0.41666667       0.33333333       0.41666667 </v>
   <v>       0.50000000       0.33333333       0.41666667 </v>
   <v>      -0.41666667       0.33333333       0.41666667 </v>
   <v>      -0.33333333       0.33333333       0.41666667 </v>
   <v>      -0.25000000       0.33333333       0.41666667 </v>
   <v>      -0.16666667       0.33333333       0.41666667 </v>
   <v>      -0.08333333       0.33333333       0.41666667 </v>
   <v>       0.00000000       0.41666667       0.41666667 </v>
   <v>       0.08333333       0.41666667       0.41666667 </v>
   <v>       0.16666667       0.41666667       0.41666667 </v>
   <v>       0.25000000       0.41666667       0.41666667 </v>
   <v>       0.33333333       0.41666667       0.41666667 </v>
   <v>       0.41666667       0.41666667       0.41666667 </v>
   <v>       0.50000000       0.41666667       0.41666667 </v>
   <v>      -0.41666667       0.41666667       0.41666667 </v>
   <v>      -0.33333333       0.41666667       0.41666667 </v>
   <v>      -0.25000000       0.41666667       0.41666667 </v>
   <v>      -0.16666667       0.41666667       0.41666667 </v>
   <v>      -0.08333333       0.41666667       0.41666667 </v>
   <v>       0.00000000       0.50000000       0.41666667 </v>
   <v>       0.08333333       0.50000000       0.41666667 </v>
   <v>       0.16666667       0.50000000       0.41666667 </v>
   <v>       0.25000000       0.50000000       0.41666667 </v>
   <v>       0.33333333       0.50000000       0.41666667 </v>
   <v>       0.41666667       0.50000000       0.41666667 </v>
   <v>       0.50000000       0.50000000       0.41666667 </v>
   <v>      -0.41666667       0.50000000       0.41666667 </v>
   <v>      -0.33333333       0.50000000       0.41666667 </v>
   <v>      -0.25000000       0.50000000       0.41666667 </v>
   <v>      -0.16666667       0.50000000       0.41666667 </v>
   <v>      -0.08333333       0.50000000       0.41666667 </v>
   <v>      -0.00000000      -0.41666667       0.41666667 </v>
   <v>       0.08333333      -0.41666667       0.41666667 </v>
   <v>       0.16666667      -0.41666667       0.41666667 </v>
   <v>       0.25000000      -0.41666667       0.41666667 </v>
   <v>       0.33333333      -0.41666667       0.41666667 </v>
   <v>       0.41666667      -0.41666667       0.41666667 </v>
   <v>       0.50000000      -0.41666667       0.41666667 </v>
   <v>      -0.41666667      -0.41666667       0.41666667 </v>
   <v>      -0.33333333      -0.41666667       0.41666667 </v>
   <v>      -0.25000000      -0.41666667       0.41666667 </v>
   <v>      -0.16666667      -0.41666667       0.41666667 </v>
   <v>      -0.08333333      -0.41666667       0.41666667 </v>
   <v>      -0.00000000      -0.33333333       0.41666667 </v>
   <v>       0.08333333      -0.33333333       0.41666667 </v>
   <v>       0.16666667      -0.33333333       0.41666667 </v>
   <v>       0.25000000      -0.33333333       0.41666667 </v>
   <v>       0.33333333      -0.33333333       0.41666667 </v>
   <v>       0.41666667      -0.33333333       0.41666667 </v>
   <v>       0.50000000      -0.33333333       0.41666667 </v>
   <v>      -0.41666667      -0.33333333       0.41666667 </v>
   <v>      -0.33333333      -0.33333333       0.41666667 </v>
   <v>      -0.25000000      -0.33333333       0.41666667 </v>
   <v>      -0.16666667      -0.33333333       0.41666667 </v>
   <v>      -0.08333333      -0.33333333       0.41666667 </v>
   <v>      -0.00000000      -0.25000000       0.41666667 </v>
   <v>       0.08333333      -0.25000000       0.41666667 </v>
   <v>       0.16666667      -0.25000000       0.41666667 </v>
   <v>       0.25000000      -0.25000000       0.41666667 </v>
   <v>       0.33333333      -0.25000000       0.41666667 </v>
   <v>       0.41666667      -0.25000000       0.41666667 </v>
   <v>       0.50000000      -0.25000000       0.41666667 </v>
   <v>      -0.41666667      -0.25000000       0.41666667 </v>
   <v>      -0.33333333      -0.25000000       0.41666667 </v>
   <v>      -0.25000000      -0.25000000       0.41666667 </v>
   <v>      -0.16666667      -0.25000000       0.41666667 </v>
   <v>      -0.08333333      -0.25000000       0.41666667 </v>
   <v>       0.00000000      -0.16666667       0.41666667 </v>
   <v>       0.08333333      -0.16666667       0.41666667 </v>
   <v>       0.16666667      -0.16666667       0.41666667 </v>
   <v>       0.25000000      -0.16666667       0.41666667 </v>
   <v>       0.33333333      -0.16666667       0.41666667 </v>
   <v>       0.41666667      -0.16666667       0.41666667 </v>
   <v>       0.50000000      -0.16666667       0.41666667 </v>
   <v>      -0.41666667      -0.16666667       0.41666667 </v>
   <v>      -0.33333333      -0.16666667       0.41666667 </v>
   <v>      -0.25000000      -0.16666667       0.41666667 </v>
   <v>      -0.16666667      -0.16666667       0.41666667 </v>
   <v>      -0.08333333      -0.16666667       0.41666667 </v>
   <v>      -0.00000000      -0.08333333       0.41666667 </v>
   <v>       0.08333333      -0.08333333       0.41666667 </v>
   <v>       0.16666667      -0.08333333       0.41666667 </v>
   <v>       0.25000000      -0.08333333       0.41666667 </v>
   <v>       0.33333333      -0.08333333       0.41666667 </v>
   <v>       0.41666667      -0.08333333       0.41666667 </v>
   <v>       0.50000000      -0.08333333       0.41666667 </v>
   <v>      -0.41666667      -0.08333333       0.41666667 </v>
   <v>      -0.33333333      -0.08333333       0.41666667 </v>
   <v>      -0.25000000      -0.08333333       0.41666667 </v>
   <v>      -0.16666667      -0.08333333       0.41666667 </v>
   <v>      -0.08333333      -0.08333333       0.41666667 </v>
   <v>      -0.00000000       0.00000000       0.50000000 </v>
   <v>       0.08333333       0.00000000       0.50000000 </v>
   <v>       0.16666667       0.00000000       0.50000000 </v>
   <v>       0.25000000       0.00000000       0.50000000 </v>
   <v>       0.33333333       0.00000000       0.50000000 </v>
   <v>       0.41666667       0.00000000       0.50000000 </v>
   <v>       0.50000000       0.00000000       0.50000000 </v>
   <v>      -0.41666667       0.00000000       0.50000000 </v>
   <v>      -0.33333333      -0.00000000       0.50000000 </v>
   <v>      -0.25000000      -0.00000000       0.50000000 </v>
   <v>      -0.16666667       0.00000000       0.50000000 </v>
   <v>      -0.08333333       0.00000000       0.50000000 </v>
   <v>       0.00000000       0.08333333       0.50000000 </v>
   <v>       0.08333333       0.08333333       0.50000000 </v>
   <v>       0.16666667       0.08333333       0.50000000 </v>
   <v>       0.25000000       0.08333333       0.50000000 </v>
   <v>       0.33333333       0.08333333       0.50000000 </v>
   <v>       0.41666667       0.08333333       0.50000000 </v>
   <v>       0.50000000       0.08333333       0.50000000 </v>
   <v>      -0.41666667       0.08333333       0.50000000 </v>
   <v>      -0.33333333       0.08333333       0.50000000 </v>
   <v>      -0.25000000       0.08333333       0.50000000 </v>
   <v>      -0.16666667       0.08333333       0.50000000 </v>
   <v>      -0.08333333       0.08333333       0.50000000 </v>
   <v>      -0.00000000       0.16666667       0.50000000 </v>
   <v>       0.08333333       0.16666667       0.50000000 </v>
   <v>       0.16666667       0.16666667       0.50000000 </v>
   <v>       0.25000000       0.16666667       0.50000000 </v>
[...]
     <r>     9.2731    -3.0413    -3.0413    -3.0413    -0.0000     0.0000    -0.0000 </r>
     <r>     9.2764    -3.0536    -3.0536    -3.0536    -0.0000     0.0000    -0.0000 </r>
     <r>     9.2798    -3.0656    -3.0655    -3.0656    -0.0000     0.0000    -0.0000 </r>
     <r>     9.2831    -3.0770    -3.0770    -3.0770    -0.0000     0.0000    -0.0000 </r>
     <r>     9.2864    -3.0879    -3.0879    -3.0879    -0.0000     0.0000    -0.0000 </r>
     <r>     9.2898    -3.0982    -3.0982    -3.0982    -0.0000     0.0000    -0.0000 </r>
     <r>     9.2931    -3.1079    -3.1079    -3.1079    -0.0000     0.0000    -0.0000 </r>
     <r>     9.2964    -3.1169    -3.1169    -3.1169    -0.0000     0.0000    -0.0000 </r>
     <r>     9.2998    -3.1252    -3.1252    -3.1252    -0.0000     0.0000    -0.0000 </r>
     <r>     9.3031    -3.1328    -3.1328    -3.1328    -0.0000     0.0000    -0.0000 </r>
     <r>     9.3064    -3.1396    -3.1396    -3.1396    -0.0000     0.0000    -0.0000 </r>
     <r>     9.3098    -3.1457    -3.1457    -3.1457    -0.0000     0.0000    -0.0000 </r>
     <r>     9.3131    -3.1511    -3.1511    -3.1511    -0.0000     0.0000    -0.0000 </r>
     <r>     9.3164    -3.1557    -3.1557    -3.1557    -0.0000     0.0000    -0.0000 </r>
     <r>     9.3198    -3.1596    -3.1596    -3.1596    -0.0000     0.0000    -0.0000 </r>
     <r>     9.3231    -3.1628    -3.1628    -3.1628    -0.0000     0.0000    -0.0000 </r>
     <r>     9.3264    -3.1653    -3.1653    -3.1653    -0.0000     0.0000    -0.0000 </r>
     <r>     9.3298    -3.1671    -3.1671    -3.1671    -0.0000     0.0000    -0.0000 </r>
     <r>     9.3331    -3.1683    -3.1683    -3.1683    -0.0000     0.0000    -0.0000 </r>
     <r>     9.3364    -3.1689    -3.1689    -3.1689    -0.0000     0.0000    -0.0000 </r>
     <r>     9.3398    -3.1689    -3.1689    -3.1689    -0.0000     0.0000    -0.0000 </r>
     <r>     9.3431    -3.1683    -3.1683    -3.1683    -0.0000     0.0000    -0.0000 </r>
     <r>     9.3464    -3.1673    -3.1673    -3.1673    -0.0000     0.0000    -0.0000 </r>
     <r>     9.3498    -3.1657    -3.1657    -3.1657    -0.0000     0.0000    -0.0000 </r>
     <r>     9.3531    -3.1636    -3.1636    -3.1636    -0.0000     0.0000    -0.0000 </r>
     <r>     9.3565    -3.1611    -3.1611    -3.1611    -0.0000     0.0000    -0.0000 </r>
     <r>     9.3598    -3.1582    -3.1582    -3.1582    -0.0000     0.0000    -0.0000 </r>
     <r>     9.3631    -3.1549    -3.1549    -3.1549    -0.0000     0.0000    -0.0000 </r>
     <r>     9.3665    -3.1513    -3.1513    -3.1513    -0.0000     0.0000    -0.0000 </r>
     <r>     9.3698    -3.1473    -3.1473    -3.1473    -0.0000     0.0000    -0.0000 </r>
     <r>     9.3731    -3.1431    -3.1431    -3.1431    -0.0000     0.0000    -0.0000 </r>
     <r>     9.3765    -3.1386    -3.1386    -3.1386    -0.0000     0.0000    -0.0000 </r>
     <r>     9.3798    -3.1338    -3.1338    -3.1338    -0.0000     0.0000    -0.0000 </r>
     <r>     9.3831    -3.1289    -3.1289    -3.1289    -0.0000     0.0000    -0.0000 </r>
     <r>     9.3865    -3.1239    -3.1239    -3.1239    -0.0000     0.0000    -0.0000 </r>
     <r>     9.3898    -3.1187    -3.1187    -3.1187    -0.0000     0.0000    -0.0000 </r>
     <r>     9.3931    -3.1134    -3.1134    -3.1134    -0.0000     0.0000    -0.0000 </r>
     <r>     9.3965    -3.1081    -3.1081    -3.1081    -0.0000     0.0000    -0.0000 </r>
     <r>     9.3998    -3.1027    -3.1027    -3.1027    -0.0000     0.0000    -0.0000 </r>
     <r>     9.4031    -3.0973    -3.0973    -3.0973    -0.0000     0.0000    -0.0000 </r>
     <r>     9.4065    -3.0920    -3.0920    -3.0920    -0.0000     0.0000    -0.0000 </r>
     <r>     9.4098    -3.0866    -3.0866    -3.0866    -0.0000     0.0000    -0.0000 </r>
     <r>     9.4131    -3.0813    -3.0813    -3.0813    -0.0000     0.0000    -0.0000 </r>
     <r>     9.4165    -3.0760    -3.0760    -3.0760    -0.0000     0.0000    -0.0000 </r>
     <r>     9.4198    -3.0708    -3.0708    -3.0708    -0.0000     0.0000    -0.0000 </r>
     <r>     9.4231    -3.0657    -3.0657    -3.0657    -0.0000     0.0000    -0.0000 </r>
     <r>     9.4265    -3.0607    -3.0607    -3.0607    -0.0000     0.0000    -0.0000 </r>
     <r>     9.4298    -3.0557    -3.0557    -3.0557    -0.0000     0.0000    -0.0000 </r>
     <r>     9.4331    -3.0509    -3.0509    -3.0509    -0.0000     0.0000    -0.0000 </r>
     <r>     9.4365    -3.0461    -3.0461    -3.0461    -0.0000     0.0000    -0.0000 </r>
     <r>     9.4398    -3.0414    -3.0414    -3.0414    -0.0000     0.0000    -0.0000 </r>
     <r>     9.4431    -3.0369    -3.0369    -3.0369    -0.0000     0.0000    -0.0000 </r>
     <r>     9.4465    -3.0324    -3.0324    -3.0324    -0.0000     0.0000    -0.0000 </r>
     <r>     9.4498    -3.0281    -3.0281    -3.0281    -0.0000     0.0000    -0.0000 </r>
     <r>     9.4532    -3.0239    -3.0239    -3.0239    -0.0000     0.0000    -0.0000 </r>
     <r>     9.4565    -3.0198    -3.0198    -3.0198    -0.0000     0.0000    -0.0000 </r>
     <r>     9.4598    -3.0159    -3.0159    -3.0159    -0.0000     0.0000    -0.0000 </r>
     <r>     9.4632    -3.0121    -3.0121    -3.0121    -0.0000     0.0000    -0.0000 </r>
     <r>     9.4665    -3.0085    -3.0085    -3.0085    -0.0000     0.0000    -0.0000 </r>
     <r>     9.4698    -3.0050    -3.0051    -3.0050    -0.0000     0.0000    -0.0000 </r>
     <r>     9.4732    -3.0018    -3.0018    -3.0018    -0.0000     0.0000    -0.0000 </r>
     <r>     9.4765    -2.9988    -2.9988    -2.9988    -0.0000     0.0000    -0.0000 </r>
     <r>     9.4798    -2.9959    -2.9959    -2.9959    -0.0000     0.0000    -0.0000 </r>
     <r>     9.4832    -2.9934    -2.9934    -2.9934    -0.0000     0.0000    -0.0000 </r>
     <r>     9.4865    -2.9911    -2.9911    -2.9911    -0.0000     0.0000    -0.0000 </r>
     <r>     9.4898    -2.9890    -2.9890    -2.9890    -0.0000     0.0000    -0.0000 </r>
     <r>     9.4932    -2.9873    -2.9873    -2.9873    -0.0000     0.0000    -0.0000 </r>
     <r>     9.4965    -2.9858    -2.9858    -2.9858    -0.0000    -0.0000    -0.0000 </r>
     <r>     9.4998    -2.9847    -2.9847    -2.9847    -0.0000    -0.0000    -0.0000 </r>
     <r>     9.5032    -2.9840    -2.9840    -2.9840    -0.0000    -0.0000    -0.0000 </r>
     <r>     9.5065    -2.9836    -2.9836    -2.9836    -0.0000    -0.0000    -0.0000 </r>
     <r>     9.5098    -2.9835    -2.9835    -2.9835    -0.0000    -0.0000    -0.0000 </r>
     <r>     9.5132    -2.9838    -2.9838    -2.9838    -0.0000    -0.0000    -0.0000 </r>
     <r>     9.5165    -2.9845    -2.9845    -2.9845    -0.0000    -0.0000    -0.0000 </r>
     <r>     9.5198    -2.9855    -2.9855    -2.9855    -0.0000    -0.0000     0.0000 </r>
     <r>     9.5232    -2.9869    -2.9869    -2.9869    -0.0000    -0.0000     0.0000 </r>
     <r>     9.5265    -2.9886    -2.9886    -2.9886    -0.0000    -0.0000     0.0000 </r>
     <r>     9.5298    -2.9907    -2.9907    -2.9907    -0.0000    -0.0000     0.0000 </r>
     <r>     9.5332    -2.9931    -2.9931    -2.9931    -0.0000    -0.0000     0.0000 </r>
     <r>     9.5365    -2.9957    -2.9957    -2.9957    -0.0000    -0.0000     0.0000 </r>
     <r>     9.5398    -2.9986    -2.9986    -2.9986     0.0000    -0.0000     0.0000 </r>
     <r>     9.5432    -3.0016    -3.0016    -3.0016     0.0000    -0.0000     0.0000 </r>
     <r>     9.5465    -3.0049    -3.0049    -3.0049     0.0000    -0.0000     0.0000 </r>
     <r>     9.5498    -3.0083    -3.0083    -3.0083     0.0000    -0.0000     0.0000 </r>
     <r>     9.5532    -3.0118    -3.0118    -3.0118     0.0000    -0.0000     0.0000 </r>
     <r>     9.5565    -3.0153    -3.0153    -3.0153     0.0000    -0.0000     0.0000 </r>
     <r>     9.5599    -3.0188    -3.0188    -3.0188     0.0000    -0.0000     0.0000 </r>
     <r>     9.5632    -3.0223    -3.0223    -3.0223     0.0000    -0.0000     0.0000 </r>
     <r>     9.5665    -3.0258    -3.0258    -3.0258     0.0000    -0.0000     0.0000 </r>
     <r>     9.5699    -3.0291    -3.0291    -3.0291     0.0000    -0.0000     0.0000 </r>
     <r>     9.5732    -3.0323    -3.0323    -3.0323     0.0000    -0.0000     0.0000 </r>
     <r>     9.5765    -3.0353    -3.0353    -3.0353     0.0000    -0.0000     0.0000 </r>
     <r>     9.5799    -3.0381    -3.0381    -3.0381     0.0000    -0.0000     0.0000 </r>
     <r>     9.5832    -3.0407    -3.0407    -3.0407     0.0000    -0.0000     0.0000 </r>
     <r>     9.5865    -3.0430    -3.0430    -3.0430     0.0000    -0.0000     0.0000 </r>
     <r>     9.5899    -3.0451    -3.0451    -3.0451     0.0000    -0.0000     0.0000 </r>
     <r>     9.5932    -3.0470    -3.0470    -3.0470     0.0000    -0.0000     0.0000 </r>
     <r>     9.5965    -3.0485    -3.0485    -3.0485     0.0000    -0.0000     0.0000 </r>
     <r>     9.5999    -3.0499    -3.0499    -3.0499     0.0000    -0.0000     0.0000 </r>
     <r>     9.6032    -3.0509    -3.0509    -3.0509     0.0000    -0.0000     0.0000 </r>
     <r>     9.6065    -3.0517    -3.0517    -3.0517     0.0000    -0.0000     0.0000 </r>
     <r>     9.6099    -3.0523    -3.0523    -3.0523     0.0000    -0.0000     0.0000 </r>
     <r>     9.6132    -3.0526    -3.0526    -3.0526     0.0000    -0.0000     0.0000 </r>
     <r>     9.6165    -3.0526    -3.0526    -3.0526     0.0000    -0.0000    -0.0000 </r>
     <r>     9.6199    -3.0525    -3.0525    -3.0525     0.0000    -0.0000    -0.0000 </r>
     <r>     9.6232    -3.0522    -3.0522    -3.0522     0.0000    -0.0000    -0.0000 </r>
     <r>     9.6265    -3.0517    -3.0517    -3.0517     0.0000     0.0000    -0.0000 </r>
     <r>     9.6299    -3.0510    -3.0510    -3.0510     0.0000     0.0000    -0.0000 </r>
     <r>     9.6332    -3.0502    -3.0502    -3.0502     0.0000     0.0000    -0.0000 </r>
     <r>     9.6365    -3.0492    -3.0492    -3.0492     0.0000     0.0000    -0.0000 </r>
     <r>     9.6399    -3.0482    -3.0482    -3.0482     0.0000     0.0000    -0.0000 </r>
     <r>     9.6432    -3.0470    -3.0470    -3.0470     0.0000     0.0000    -0.0000 </r>
     <r>     9.6465    -3.0457    -3.0457    -3.0457     0.0000     0.0000    -0.0000 </r>
     <r>     9.6499    -3.0443    -3.0443    -3.0443     0.0000     0.0000    -0.0000 </r>
     <r>     9.6532    -3.0427    -3.0427    -3.0427     0.0000     0.0000    -0.0000 </r>
     <r>     9.6566    -3.0411    -3.0411    -3.0411     0.0000     0.0000    -0.0000 </r>
     <r>     9.6599    -3.0393    -3.0393    -3.0393     0.0000     0.0000    -0.0000 </r>
     <r>     9.6632    -3.0375    -3.0375    -3.0375    -0.0000     0.0000    -0.0000 </r>
     <r>     9.6666    -3.0354    -3.0354    -3.0354    -0.0000     0.0000    -0.0000 </r>
     <r>     9.6699    -3.0333    -3.0333    -3.0333    -0.0000     0.0000    -0.0000 </r>
     <r>     9.6732    -3.0309    -3.0309    -3.0309    -0.0000     0.0000    -0.0000 </r>
     <r>     9.6766    -3.0283    -3.0283    -3.0283    -0.0000     0.0000    -0.0000 </r>
     <r>     9.6799    -3.0256    -3.0256    -3.0256    -0.0000     0.0000    -0.0000 </r>
     <r>     9.6832    -3.0225    -3.0225    -3.0225    -0.0000     0.0000    -0.0000 </r>
     <r>     9.6866    -3.0193    -3.0193    -3.0193    -0.0000     0.0000    -0.0000 </r>
     <r>     9.6899    -3.0158    -3.0158    -3.0158    -0.0000     0.0000    -0.0000 </r>
     <r>     9.6932    -3.0120    -3.0120    -3.0120    -0.0000     0.0000    -0.0000 </r>
     <r>     9.6966    -3.0080    -3.0080    -3.0080    -0.0000     0.0000    -0.0000 </r>
     <r>     9.6999    -3.0037    -3.0037    -3.0037    -0.0000     0.0000    -0.0000 </r>
     <r>     9.7032    -2.9992    -2.9992    -2.9992    -0.0000     0.0000    -0.0000 </r>
     <r>     9.7066    -2.9945    -2.9945    -2.9945    -0.0000     0.0000    -0.0000 </r>
     <r>     9.7099    -2.9896    -2.9896    -2.9896    -0.0000     0.0000    -0.0000 </r>
     <r>     9.7132    -2.9845    -2.9845    -2.9845    -0.0000     0.0000    -0.0000 </r>
     <r>     9.7166    -2.9793    -2.9793    -2.9793    -0.0000     0.0000    -0.0000 </r>
     <r>     9.7199    -2.9740    -2.9741    -2.9741    -0.0000     0.0000    -0.0000 </r>
     <r>     9.7232    -2.9688    -2.9688    -2.9688    -0.0000     0.0000    -0.0000 </r>
     <r>     9.7266    -2.9636    -2.9636    -2.9636    -0.0000     0.0000    -0.0000 </r>
     <r>     9.7299    -2.9585    -2.9585    -2.9585    -0.0000     0.0000    -0.0000 </r>
     <r>     9.7332    -2.9536    -2.9536    -2.9536    -0.0000     0.0000    -0.0000 </r>
     <r>     9.7366    -2.9489    -2.9489    -2.9489    -0.0000     0.0000    -0.0000 </r>
     <r>     9.7399    -2.9446    -2.9446    -2.9446    -0.0000     0.0000    -0.0000 </r>
     <r>     9.7432    -2.9407    -2.9407    -2.9407    -0.0000     0.0000    -0.0000 </r>
     <r>     9.7466    -2.9372    -2.9372    -2.9372    -0.0000     0.0000    -0.0000 </r>
     <r>     9.7499    -2.9343    -2.9343    -2.9343    -0.0000     0.0000    -0.0000 </r>
     <r>     9.7533    -2.9320    -2.9320    -2.9320    -0.0000     0.0000    -0.0000 </r>
     <r>     9.7566    -2.9303    -2.9303    -2.9303    -0.0000     0.0000    -0.0000 </r>
     <r>     9.7599    -2.9294    -2.9294    -2.9294    -0.0000     0.0000    -0.0000 </r>
     <r>     9.7633    -2.9292    -2.9292    -2.9292    -0.0000     0.0000    -0.0000 </r>
     <r>     9.7666    -2.9298    -2.9298    -2.9298    -0.0000     0.0000    -0.0000 </r>
     <r>     9.7699    -2.9313    -2.9313    -2.9313    -0.0000     0.0000    -0.0000 </r>
     <r>     9.7733    -2.9336    -2.9336    -2.9336    -0.0000     0.0000    -0.0000 </r>
     <r>     9.7766    -2.9368    -2.9368    -2.9368    -0.0000     0.0000    -0.0000 </r>
     <r>     9.7799    -2.9410    -2.9410    -2.9410    -0.0000     0.0000    -0.0000 </r>
     <r>     9.7833    -2.9460    -2.9460    -2.9460    -0.0000     0.0000    -0.0000 </r>
     <r>     9.7866    -2.9520    -2.9520    -2.9520    -0.0000     0.0000    -0.0000 </r>
     <r>     9.7899    -2.9590    -2.9590    -2.9590    -0.0000     0.0000    -0.0000 </r>
     <r>     9.7933    -2.9668    -2.9668    -2.9668    -0.0000     0.0000    -0.0000 </r>
     <r>     9.7966    -2.9756    -2.9756    -2.9756    -0.0000     0.0000    -0.0000 </r>
     <r>     9.7999    -2.9853    -2.9853    -2.9853    -0.0000     0.0000    -0.0000 </r>
     <r>     9.8033    -2.9959    -2.9959    -2.9959    -0.0000     0.0000    -0.0000 </r>
     <r>     9.8066    -3.0073    -3.0073    -3.0073    -0.0000     0.0000    -0.0000 </r>
     <r>     9.8099    -3.0196    -3.0196    -3.0196    -0.0000     0.0000    -0.0000 </r>
     <r>     9.8133    -3.0327    -3.0327    -3.0327    -0.0000     0.0000    -0.0000 </r>
     <r>     9.8166    -3.0466    -3.0466    -3.0466    -0.0000     0.0000    -0.0000 </r>
     <r>     9.8199    -3.0612    -3.0612    -3.0612    -0.0000     0.0000    -0.0000 </r>
     <r>     9.8233    -3.0765    -3.0765    -3.0765    -0.0000     0.0000    -0.0000 </r>
     <r>     9.8266    -3.0925    -3.0925    -3.0925    -0.0000     0.0000    -0.0000 </r>
     <r>     9.8299    -3.1091    -3.1091    -3.1091    -0.0000     0.0000    -0.0000 </r>
     <r>     9.8333    -3.1263    -3.1263    -3.1263    -0.0000     0.0000    -0.0000 </r>
     <r>     9.8366    -3.1440    -3.1440    -3.1440    -0.0000     0.0000    -0.0000 </r>
     <r>     9.8399    -3.1622    -3.1622    -3.1622    -0.0000     0.0000    -0.0000 </r>
     <r>     9.8433    -3.1809    -3.1809    -3.1809    -0.0000     0.0000    -0.0000 </r>
     <r>     9.8466    -3.1999    -3.1999    -3.1999    -0.0000     0.0000    -0.0000 </r>
     <r>     9.8499    -3.2193    -3.2193    -3.2193    -0.0000     0.0000    -0.0000 </r>
     <r>     9.8533    -3.2391    -3.2391    -3.2391    -0.0000     0.0000    -0.0000 </r>
     <r>     9.8566    -3.2591    -3.2591    -3.2591    -0.0000     0.0000    -0.0000 </r>
     <r>     9.8600    -3.2793    -3.2793    -3.2793    -0.0000     0.0000    -0.0000 </r>
     <r>     9.8633    -3.2996    -3.2996    -3.2996    -0.0000     0.0000    -0.0000 </r>
     <r>     9.8666    -3.3201    -3.3201    -3.3201    -0.0000     0.0000    -0.0000 </r>
     <r>     9.8700    -3.3405    -3.3405    -3.3405    -0.0000     0.0000    -0.0000 </r>
     <r>     9.8733    -3.3610    -3.3610    -3.3610    -0.0000     0.0000    -0.0000 </r>
     <r>     9.8766    -3.3813    -3.3813    -3.3813    -0.0000     0.0000    -0.0000 </r>
     <r>     9.8800    -3.4014    -3.4014    -3.4014    -0.0000     0.0000    -0.0000 </r>
     <r>     9.8833    -3.4213    -3.4213    -3.4213    -0.0000     0.0000    -0.0000 </r>
     <r>     9.8866    -3.4408    -3.4408    -3.4408    -0.0000     0.0000    -0.0000 </r>
     <r>     9.8900    -3.4599    -3.4599    -3.4599    -0.0000     0.0000    -0.0000 </r>
     <r>     9.8933    -3.4785    -3.4785    -3.4785    -0.0000     0.0000    -0.0000 </r>
     <r>     9.8966    -3.4964    -3.4964    -3.4964    -0.0000     0.0000    -0.0000 </r>
     <r>     9.9000    -3.5137    -3.5137    -3.5137    -0.0000     0.0000    -0.0000 </r>
     <r>     9.9033    -3.5301    -3.5301    -3.5301    -0.0000     0.0000    -0.0000 </r>
     <r>     9.9066    -3.5457    -3.5457    -3.5457    -0.0000     0.0000    -0.0000 </r>
     <r>     9.9100    -3.5603    -3.5603    -3.5603    -0.0000     0.0000    -0.0000 </r>
     <r>     9.9133    -3.5739    -3.5739    -3.5739    -0.0000     0.0000    -0.0000 </r>
     <r>     9.9166    -3.5864    -3.5864    -3.5864    -0.0000     0.0000    -0.0000 </r>
     <r>     9.9200    -3.5977    -3.5977    -3.5977    -0.0000     0.0000    -0.0000 </r>
     <r>     9.9233    -3.6079    -3.6079    -3.6079    -0.0000     0.0000    -0.0000 </r>
     <r>     9.9266    -3.6168    -3.6168    -3.6168    -0.0000     0.0000    -0.0000 </r>
     <r>     9.9300    -3.6244    -3.6244    -3.6244    -0.0000     0.0000    -0.0000 </r>
     <r>     9.9333    -3.6308    -3.6308    -3.6308     0.0000     0.0000    -0.0000 </r>
     <r>     9.9366    -3.6359    -3.6359    -3.6359     0.0000     0.0000    -0.0000 </r>
     <r>     9.9400    -3.6398    -3.6398    -3.6398     0.0000     0.0000    -0.0000 </r>
     <r>     9.9433    -3.6424    -3.6424    -3.6424     0.0000     0.0000    -0.0000 </r>
     <r>     9.9466    -3.6438    -3.6438    -3.6438     0.0000     0.0000    -0.0000 </r>
     <r>     9.9500    -3.6440    -3.6440    -3.6440     0.0000     0.0000    -0.0000 </r>
     <r>     9.9533    -3.6431    -3.6431    -3.6431     0.0000     0.0000    -0.0000 </r>
     <r>     9.9567    -3.6412    -3.6412    -3.6412     0.0000     0.0000    -0.0000 </r>
     <r>     9.9600    -3.6382    -3.6382    -3.6382     0.0000     0.0000    -0.0000 </r>
     <r>     9.9633    -3.6342    -3.6342    -3.6342     0.0000    -0.0000    -0.0000 </r>
     <r>     9.9667    -3.6293    -3.6293    -3.6293     0.0000    -0.0000    -0.0000 </r>
     <r>     9.9700    -3.6236    -3.6236    -3.6236     0.0000    -0.0000     0.0000 </r>
     <r>     9.9733    -3.6171    -3.6171    -3.6171     0.0000    -0.0000     0.0000 </r>
     <r>     9.9767    -3.6098    -3.6098    -3.6098     0.0000    -0.0000     0.0000 </r>
     <r>     9.9800    -3.6019    -3.6019    -3.6019     0.0000    -0.0000     0.0000 </r>
     <r>     9.9833    -3.5934    -3.5934    -3.5934     0.0000    -0.0000     0.0000 </r>
     <r>     9.9867    -3.5843    -3.5843    -3.5843     0.0000    -0.0000     0.0000 </r>
     <r>     9.9900    -3.5748    -3.5748    -3.5748     0.0000    -0.0000     0.0000 </r>
     <r>     9.9933    -3.5647    -3.5647    -3.5647     0.0000    -0.0000     0.0000 </r>
     <r>     9.9967    -3.5543    -3.5543    -3.5543     0.0000    -0.0000     0.0000 </r>
     <r>    10.0000    -3.5435    -3.5435    -3.5435     0.0000    -0.0000     0.0000 </r>
    </set>
   </array>
  </real>
 </dielectricfunction>
