PROCAR lm decomposed
# of k-points:   15         # of bands:   48         # of ions:    5

 k-point     1 :    0.00000000 0.00000000 0.00000000     weight = 0.01234568

band     1 # energy   -8.49810948 # occ.  1.00000000
 
ion      s     py     pz     px    dxy    dyz    dz2    dxz  x2-y2    tot
    1  0.040  0.000  0.006  0.000  0.000  0.000  0.000  0.000  0.000  0.047
    2  0.163  0.000  0.003  0.000  0.000  0.000  0.000  0.000  0.000  0.167
    3  0.247  0.000  0.000  0.000  0.000  0.000  0.000  0.000  0.000  0.248
    4  0.195  0.000  0.002  0.000  0.000  0.000  0.000  0.000  0.000  0.198
    5  0.057  0.000  0.009  0.000  0.000  0.000  0.000  0.000  0.000  0.066
tot    0.704  0.000  0.021  0.000  0.000  0.000  0.001  0.000  0.000  0.725
 
band     2 # energy   -7.31886801 # occ.  1.00000000
 
ion      s     py     pz     px    dxy    dyz    dz2    dxz  x2-y2    tot
    1  0.134  0.000  0.012  0.000  0.000  0.000  0.001  0.000  0.000  0.146
    2  0.192  0.000  0.005  0.000  0.000  0.000  0.006  0.000  0.000  0.202
    3  0.001  0.000  0.037  0.000  0.000  0.000  0.000  0.000  0.000  0.038
    4  0.169  0.000  0.008  0.000  0.000  0.000  0.006  0.000  0.000  0.183
    5  0.137  0.000  0.011  0.000  0.000  0.000  0.001  0.000  0.000  0.150
tot    0.632  0.000  0.073  0.000  0.000  0.000  0.014  0.000  0.000  0.720
 
band     3 # energy   -5.64341571 # occ.  1.00000000
 
ion      s     py     pz     px    dxy    dyz    dz2    dxz  x2-y2    tot
    1  0.157  0.000  0.001  0.000  0.000  0.000  0.021  0.000  0.000  0.179
    2  0.004  0.000  0.060  0.000  0.000  0.000  0.003  0.000  0.000  0.067
    3  0.163  0.000  0.000  0.000  0.000  0.000  0.065  0.000  0.000  0.228
    4  0.003  0.000  0.061  0.000  0.000  0.000  0.002  0.000  0.000  0.066
    5  0.145  0.000  0.001  0.000  0.000  0.000  0.023  0.000  0.000  0.169
tot    0.470  0.000  0.123  0.000  0.000  0.000  0.114  0.000  0.000  0.708
 
band     4 # energy   -4.50586713 # occ.  1.00000000
 
ion      s     py     pz     px    dxy    dyz    dz2    dxz  x2-y2    tot
    1  0.028  0.000  0.001  0.000  0.000  0.000  0.028  0.000  0.000  0.056
    2  0.011  0.000  0.010  0.000  0.000  0.000  0.012  0.000  0.000  0.033
    3  0.003  0.000  0.024  0.000  0.000  0.000  0.047  0.000  0.000  0.074
    4  0.046  0.000  0.011  0.000  0.000  0.000  0.293  0.000  0.000  0.351
    5  0.086  0.000  0.010  0.000  0.000  0.000  0.189  0.000  0.000  0.285
tot    0.173  0.000  0.056  0.000  0.000  0.000  0.570  0.000  0.000  0.799
 
band     5 # energy   -4.42715184 # occ.  1.00000000
 
ion      s     py     pz     px    dxy    dyz    dz2    dxz  x2-y2    tot
    1  0.066  0.000  0.008  0.000  0.000  0.000  0.152  0.000  0.000  0.226
    2  0.041  0.000  0.003  0.000  0.000  0.000  0.316  0.000  0.000  0.360
    3  0.009  0.000  0.008  0.000  0.000  0.000  0.173  0.000  0.000  0.189
    4  0.000  0.000  0.003  0.000  0.000  0.000  0.047  0.000  0.000  0.050
    5  0.000  0.000  0.001  0.000  0.000  0.000  0.006  0.000  0.000  0.006
tot    0.117  0.000  0.022  0.000  0.000  0.000  0.693  0.000  0.000  0.832
 
band     6 # energy   -3.98714719 # occ.  1.00000000
 
ion      s     py     pz     px    dxy    dyz    dz2    dxz  x2-y2    tot
    1  0.000  0.000  0.000  0.000  0.032  0.000  0.000  0.000  0.000  0.032
    2  0.000  0.000  0.000  0.000  0.175  0.000  0.000  0.000  0.000  0.175
    3  0.000  0.000  0.000  0.000  0.322  0.000  0.000  0.000  0.000  0.322
    4  0.000  0.000  0.000  0.000  0.317  0.000  0.000  0.000  0.000  0.317
    5  0.000  0.000  0.000  0.000  0.095  0.000  0.000  0.000  0.000  0.095
tot    0.000  0.000  0.000  0.000  0.942  0.000  0.000  0.000  0.000  0.942
 
band     7 # energy   -3.63027586 # occ.  1.00000000
 
ion      s     py     pz     px    dxy    dyz    dz2    dxz  x2-y2    tot
    1  0.000  0.000  0.000  0.000  0.163  0.000  0.000  0.000  0.000  0.163
    2  0.000  0.000  0.000  0.000  0.350  0.000  0.000  0.000  0.000  0.350
    3  0.000  0.000  0.000  0.000  0.020  0.000  0.000  0.000  0.000  0.020
    4  0.000  0.000  0.000  0.000  0.228  0.000  0.000  0.000  0.000  0.228
    5  0.000  0.000  0.000  0.000  0.185  0.000  0.000  0.000  0.000  0.185
tot    0.000  0.000  0.000  0.000  0.946  0.000  0.000  0.000  0.000  0.946
 
band     8 # energy   -3.11773804 # occ.  1.00000000
 
ion      s     py     pz     px    dxy    dyz    dz2    dxz  x2-y2    tot
    1  0.000  0.000  0.000  0.000  0.325  0.000  0.000  0.000  0.000  0.325
    2  0.000  0.000  0.000  0.000  0.023  0.000  0.000  0.000  0.000  0.023
    3  0.000  0.000  0.000  0.000  0.371  0.000  0.000  0.000  0.000  0.371
    4  0.000  0.000  0.000  0.000  0.003  0.000  0.000  0.000  0.000  0.003
    5  0.000  0.000  0.000  0.000  0.231  0.000  0.000  0.000  0.000  0.231
tot    0.000  0.000  0.000  0.000  0.955  0.000  0.000  0.000  0.000  0.955
 
band     9 # energy   -2.64168758 # occ.  1.00000000
 
ion      s     py     pz     px    dxy    dyz    dz2    dxz  x2-y2    tot
    1  0.000  0.000  0.000  0.000  0.319  0.000  0.000  0.000  0.000  0.319
    2  0.000  0.000  0.000  0.000  0.204  0.000  0.000  0.000  0.000  0.204
    3  0.000  0.000  0.000  0.000  0.001  0.000  0.000  0.000  0.000  0.001
    4  0.000  0.000  0.000  0.000  0.164  0.000  0.000  0.000  0.000  0.164
    5  0.000  0.000  0.000  0.000  0.276  0.000  0.000  0.000  0.000  0.276
tot    0.000  0.000  0.000  0.000  0.965  0.000  0.000  0.000  0.000  0.965
 
band    10 # energy   -2.40577000 # occ.  1.00000000
 
ion      s     py     pz     px    dxy    dyz    dz2    dxz  x2-y2    tot
    1  0.000  0.000  0.000  0.000  0.117  0.000  0.000  0.000  0.000  0.117
    2  0.000  0.000  0.000  0.000  0.203  0.000  0.000  0.000  0.000  0.203
    3  0.000  0.000  0.000  0.000  0.240  0.000  0.000  0.000  0.000  0.240
    4  0.000  0.000  0.000  0.000  0.244  0.000  0.000  0.000  0.000  0.244
    5  0.000  0.000  0.000  0.000  0.169  0.000  0.000  0.000  0.000  0.169
tot    0.000  0.000  0.000  0.000  0.973  0.000  0.000  0.000  0.000  0.973
 
band    11 # energy   -2.27386147 # occ.  1.00000000
 
ion      s     py     pz     px    dxy    dyz    dz2    dxz  x2-y2    tot
    1  0.000  0.000  0.000  0.000  0.000  0.014  0.000  0.015  0.000  0.030
    2  0.000  0.000  0.000  0.000  0.000  0.099  0.000  0.103  0.000  0.202
    3  0.000  0.000  0.000  0.000  0.000  0.168  0.000  0.174  0.000  0.342
    4  0.000  0.000  0.000  0.000  0.000  0.163  0.000  0.169  0.000  0.332
    5  0.000  0.001  0.000  0.001  0.000  0.034  0.000  0.036  0.000  0.071
tot    0.000  0.001  0.000  0.001  0.000  0.478  0.000  0.497  0.000  0.977
 
band    12 # energy   -2.27386147 # occ.  1.00000000
 
ion      s     py     pz     px    dxy    dyz    dz2    dxz  x2-y2    tot
    1  0.000  0.000  0.000  0.000  0.000  0.015  0.000  0.014  0.000  0.030
    2  0.000  0.000  0.000  0.000  0.000  0.103  0.000  0.099  0.000  0.202
    3  0.000  0.000  0.000  0.000  0.000  0.174  0.000  0.168  0.000  0.342
    4  0.000  0.000  0.000  0.000  0.000  0.169  0.000  0.163  0.000  0.332
    5  0.000  0.001  0.000  0.001  0.000  0.036  0.000  0.034  0.000  0.071
tot    0.000  0.001  0.000  0.001  0.000  0.497  0.000  0.478  0.000  0.977
 
band    13 # energy   -1.90757714 # occ.  1.00000000
 
ion      s     py     pz     px    dxy    dyz    dz2    dxz  x2-y2    tot
    1  0.000  0.001  0.000  0.000  0.000  0.083  0.000  0.055  0.000  0.139
    2  0.000  0.000  0.000  0.000  0.000  0.232  0.000  0.154  0.000  0.386
    3  0.000  0.002  0.000  0.001  0.000  0.008  0.000  0.005  0.000  0.016
    4  0.000  0.000  0.000  0.000  0.000  0.170  0.000  0.112  0.000  0.282
    5  0.000  0.001  0.000  0.000  0.000  0.092  0.000  0.061  0.000  0.154
tot    0.000  0.004  0.000  0.002  0.000  0.585  0.000  0.387  0.000  0.978
 
band    14 # energy   -1.90757714 # occ.  1.00000000
 
ion      s     py     pz     px    dxy    dyz    dz2    dxz  x2-y2    tot
    1  0.000  0.000  0.000  0.001  0.000  0.055  0.000  0.083  0.000  0.139
    2  0.000  0.000  0.000  0.000  0.000  0.154  0.000  0.232  0.000  0.386
    3  0.000  0.001  0.000  0.002  0.000  0.005  0.000  0.008  0.000  0.016
    4  0.000  0.000  0.000  0.000  0.000  0.112  0.000  0.170  0.000  0.282
    5  0.000  0.000  0.000  0.001  0.000  0.061  0.000  0.092  0.000  0.154
tot    0.000  0.002  0.000  0.004  0.000  0.387  0.000  0.585  0.000  0.978
 
band    15 # energy   -1.71921421 # occ.  1.00000000
 
ion      s     py     pz     px    dxy    dyz    dz2    dxz  x2-y2    tot
    1  0.013  0.000  0.000  0.000  0.000  0.000  0.257  0.000  0.000  0.270
    2  0.000  0.000  0.009  0.000  0.000  0.000  0.004  0.000  0.000  0.014
    3  0.014  0.000  0.000  0.000  0.000  0.000  0.391  0.000  0.000  0.405
    4  0.000  0.000  0.010  0.000  0.000  0.000  0.028  0.000  0.000  0.039
    5  0.015  0.000  0.000  0.000  0.000  0.000  0.161  0.000  0.000  0.177
tot    0.042  0.000  0.020  0.000  0.000  0.000  0.842  0.000  0.000  0.905
 
band    16 # energy   -1.44746600 # occ.  1.00000000
 
ion      s     py     pz     px    dxy    dyz    dz2    dxz  x2-y2    tot
    1  0.000  0.000  0.000  0.000  0.000  0.000  0.268  0.000  0.000  0.268
    2  0.002  0.000  0.000  0.000  0.000  0.000  0.281  0.000  0.000  0.283
    3  0.000  0.000  0.002  0.000  0.000  0.000  0.016  0.000  0.000  0.018
    4  0.001  0.000  0.000  0.000  0.000  0.000  0.135  0.000  0.000  0.136
    5  0.002  0.000  0.000  0.000  0.000  0.000  0.247  0.000  0.000  0.249
tot    0.006  0.000  0.002  0.000  0.000  0.000  0.947  0.000  0.000  0.955
 
band    17 # energy   -1.31418464 # occ.  1.00000000
 
ion      s     py     pz     px    dxy    dyz    dz2    dxz  x2-y2    tot
    1  0.000  0.000  0.000  0.000  0.000  0.141  0.000  0.153  0.000  0.294
    2  0.000  0.002  0.000  0.002  0.000  0.016  0.000  0.018  0.000  0.038
    3  0.000  0.000  0.000  0.000  0.000  0.184  0.000  0.200  0.000  0.384
    4  0.000  0.002  0.000  0.002  0.000  0.005  0.000  0.005  0.000  0.013
    5  0.000  0.000  0.000  0.000  0.000  0.120  0.000  0.130  0.000  0.250
tot    0.000  0.004  0.000  0.004  0.000  0.466  0.000  0.506  0.000  0.980
 
band    18 # energy   -1.31418464 # occ.  1.00000000
 
ion      s     py     pz     px    dxy    dyz    dz2    dxz  x2-y2    tot
    1  0.000  0.000  0.000  0.000  0.000  0.153  0.000  0.141  0.000  0.294
    2  0.000  0.002  0.000  0.002  0.000  0.018  0.000  0.016  0.000  0.038
    3  0.000  0.000  0.000  0.000  0.000  0.200  0.000  0.184  0.000  0.384
    4  0.000  0.002  0.000  0.002  0.000  0.005  0.000  0.005  0.000  0.013
    5  0.000  0.000  0.000  0.000  0.000  0.130  0.000  0.120  0.000  0.250
tot    0.000  0.004  0.000  0.004  0.000  0.506  0.000  0.466  0.000  0.980
 
band    19 # energy   -1.26060311 # occ.  1.00000000
 
ion      s     py     pz     px    dxy    dyz    dz2    dxz  x2-y2    tot
    1  0.001  0.000  0.001  0.000  0.000  0.000  0.121  0.000  0.000  0.123
    2  0.000  0.000  0.000  0.000  0.000  0.000  0.133  0.000  0.000  0.134
    3  0.000  0.000  0.001  0.000  0.000  0.000  0.208  0.000  0.000  0.209
    4  0.000  0.000  0.000  0.000  0.000  0.000  0.291  0.000  0.000  0.291
    5  0.000  0.000  0.000  0.000  0.000  0.000  0.207  0.000  0.000  0.208
tot    0.002  0.000  0.002  0.000  0.000  0.000  0.960  0.000  0.000  0.965
 
band    20 # energy   -1.21819792 # occ.  1.00000000
 
ion      s     py     pz     px    dxy    dyz    dz2    dxz  x2-y2    tot
    1  0.000  0.000  0.000  0.000  0.000  0.000  0.000  0.000  0.015  0.015
    2  0.000  0.000  0.000  0.000  0.000  0.000  0.000  0.000  0.125  0.125
    3  0.000  0.000  0.000  0.000  0.000  0.000  0.000  0.000  0.244  0.244
    4  0.000  0.000  0.000  0.000  0.000  0.000  0.000  0.000  0.485  0.485
    5  0.000  0.000  0.000  0.000  0.000  0.000  0.000  0.000  0.120  0.120
tot    0.000  0.000  0.000  0.000  0.000  0.000  0.000  0.000  0.989  0.989
 
band    21 # energy   -1.13715646 # occ.  1.00000000
 
ion      s     py     pz     px    dxy    dyz    dz2    dxz  x2-y2    tot
    1  0.038  0.000  0.019  0.000  0.000  0.000  0.072  0.000  0.000  0.129
    2  0.037  0.000  0.016  0.000  0.000  0.000  0.153  0.000  0.000  0.206
    3  0.000  0.000  0.067  0.000  0.000  0.000  0.001  0.000  0.000  0.068
    4  0.036  0.000  0.017  0.000  0.000  0.000  0.098  0.000  0.000  0.151
    5  0.038  0.000  0.019  0.000  0.000  0.000  0.084  0.000  0.000  0.141
tot    0.149  0.000  0.139  0.000  0.000  0.000  0.408  0.000  0.000  0.696
 
band    22 # energy   -1.06372591 # occ.  1.00000000
 
ion      s     py     pz     px    dxy    dyz    dz2    dxz  x2-y2    tot
    1  0.000  0.000  0.000  0.000  0.000  0.000  0.000  0.000  0.131  0.131
    2  0.000  0.000  0.000  0.000  0.000  0.000  0.000  0.000  0.505  0.505
    3  0.000  0.000  0.000  0.000  0.000  0.000  0.000  0.000  0.058  0.058
    4  0.000  0.000  0.000  0.000  0.000  0.000  0.000  0.000  0.187  0.187
    5  0.000  0.000  0.000  0.000  0.000  0.000  0.000  0.000  0.109  0.109
tot    0.000  0.000  0.000  0.000  0.000  0.000  0.000  0.000  0.990  0.990
 
band    23 # energy   -0.79445039 # occ.  1.00000000
 
ion      s     py     pz     px    dxy    dyz    dz2    dxz  x2-y2    tot
    1  0.000  0.000  0.000  0.000  0.000  0.343  0.000  0.010  0.000  0.353
    2  0.000  0.001  0.000  0.000  0.000  0.145  0.000  0.004  0.000  0.150
    3  0.000  0.002  0.000  0.000  0.000  0.000  0.000  0.000  0.000  0.002
    4  0.000  0.001  0.000  0.000  0.000  0.144  0.000  0.004  0.000  0.150
    5  0.000  0.000  0.000  0.000  0.000  0.320  0.000  0.009  0.000  0.329
tot    0.000  0.005  0.000  0.000  0.000  0.952  0.000  0.027  0.000  0.984
 
band    24 # energy   -0.79445039 # occ.  1.00000000
 
ion      s     py     pz     px    dxy    dyz    dz2    dxz  x2-y2    tot
    1  0.000  0.000  0.000  0.000  0.000  0.010  0.000  0.343  0.000  0.353
    2  0.000  0.000  0.000  0.001  0.000  0.004  0.000  0.145  0.000  0.150
    3  0.000  0.000  0.000  0.002  0.000  0.000  0.000  0.000  0.000  0.002
    4  0.000  0.000  0.000  0.001  0.000  0.004  0.000  0.144  0.000  0.150
    5  0.000  0.000  0.000  0.000  0.000  0.009  0.000  0.320  0.000  0.329
tot    0.000  0.000  0.000  0.005  0.000  0.027  0.000  0.952  0.000  0.984
 
band    25 # energy   -0.79118809 # occ.  1.00000000
 
ion      s     py     pz     px    dxy    dyz    dz2    dxz  x2-y2    tot
    1  0.000  0.000  0.000  0.000  0.000  0.000  0.000  0.000  0.274  0.274
    2  0.000  0.000  0.000  0.000  0.000  0.000  0.000  0.000  0.042  0.042
    3  0.000  0.000  0.000  0.000  0.000  0.000  0.000  0.000  0.450  0.450
    4  0.000  0.000  0.000  0.000  0.000  0.000  0.000  0.000  0.002  0.002
    5  0.000  0.000  0.000  0.000  0.000  0.000  0.000  0.000  0.223  0.223
tot    0.000  0.000  0.000  0.000  0.000  0.000  0.000  0.000  0.991  0.991
 
band    26 # energy   -0.62554096 # occ.  1.00000000
 
ion      s     py     pz     px    dxy    dyz    dz2    dxz  x2-y2    tot
    1  0.000  0.000  0.000  0.000  0.000  0.000  0.000  0.000  0.354  0.354
    2  0.000  0.000  0.000  0.000  0.000  0.000  0.000  0.000  0.111  0.111
    3  0.000  0.000  0.000  0.000  0.000  0.000  0.000  0.000  0.002  0.002
    4  0.000  0.000  0.000  0.000  0.000  0.000  0.000  0.000  0.156  0.156
    5  0.000  0.000  0.000  0.000  0.000  0.000  0.000  0.000  0.369  0.369
tot    0.000  0.000  0.000  0.000  0.000  0.000  0.000  0.000  0.992  0.992
 
band    27 # energy   -0.55111681 # occ.  1.00000000
 
ion      s     py     pz     px    dxy    dyz    dz2    dxz  x2-y2    tot
    1  0.000  0.000  0.000  0.000  0.000  0.000  0.000  0.000  0.216  0.216
    2  0.000  0.000  0.000  0.000  0.000  0.000  0.000  0.000  0.208  0.208
    3  0.000  0.000  0.000  0.000  0.000  0.000  0.000  0.000  0.238  0.238
    4  0.000  0.000  0.000  0.000  0.000  0.000  0.000  0.000  0.162  0.162
    5  0.000  0.000  0.000  0.000  0.000  0.000  0.000  0.000  0.170  0.170
tot    0.000  0.000  0.000  0.000  0.000  0.000  0.000  0.000  0.993  0.993
 
band    28 # energy   -0.51876207 # occ.  1.00000000
 
ion      s     py     pz     px    dxy    dyz    dz2    dxz  x2-y2    tot
    1  0.000  0.000  0.000  0.000  0.000  0.157  0.000  0.006  0.000  0.164
    2  0.000  0.000  0.000  0.000  0.000  0.198  0.000  0.008  0.000  0.206
    3  0.000  0.000  0.000  0.000  0.000  0.229  0.000  0.009  0.000  0.238
    4  0.000  0.000  0.000  0.000  0.000  0.198  0.000  0.008  0.000  0.206
    5  0.000  0.001  0.000  0.000  0.000  0.170  0.000  0.007  0.000  0.177
tot    0.000  0.001  0.000  0.000  0.000  0.952  0.000  0.038  0.000  0.991
 
band    29 # energy   -0.51876207 # occ.  1.01628959
 
ion      s     py     pz     px    dxy    dyz    dz2    dxz  x2-y2    tot
    1  0.000  0.000  0.000  0.000  0.000  0.006  0.000  0.157  0.000  0.164
    2  0.000  0.000  0.000  0.000  0.000  0.008  0.000  0.198  0.000  0.206
    3  0.000  0.000  0.000  0.000  0.000  0.009  0.000  0.229  0.000  0.238
    4  0.000  0.000  0.000  0.000  0.000  0.008  0.000  0.198  0.000  0.206
    5  0.000  0.000  0.000  0.001  0.000  0.007  0.000  0.170  0.000  0.177
tot    0.000  0.000  0.000  0.001  0.000  0.038  0.000  0.952  0.000  0.991
 
band    30 # energy    0.59879240 # occ.  0.00000000
 
ion      s     py     pz     px    dxy    dyz    dz2    dxz  x2-y2    tot
    1  0.004  0.000  0.106  0.000  0.000  0.000  0.000  0.000  0.000  0.111
    2  0.022  0.000  0.044  0.000  0.000  0.000  0.032  0.000  0.000  0.097
    3  0.037  0.000  0.001  0.000  0.000  0.000  0.039  0.000  0.000  0.077
    4  0.026  0.000  0.027  0.000  0.000  0.000  0.043  0.000  0.000  0.096
    5  0.004  0.000  0.088  0.000  0.000  0.000  0.001  0.000  0.000  0.093
tot    0.092  0.000  0.266  0.000  0.000  0.000  0.116  0.000  0.000  0.474
 
band    31 # energy    1.95253451 # occ.  0.00000000
 
ion      s     py     pz     px    dxy    dyz    dz2    dxz  x2-y2    tot
    1  0.004  0.000  0.068  0.000  0.000  0.000  0.011  0.000  0.000  0.083
    2  0.002  0.000  0.093  0.000  0.000  0.000  0.001  0.000  0.000  0.096
    3  0.000  0.000  0.111  0.000  0.000  0.000  0.000  0.000  0.000  0.112
    4  0.000  0.000  0.110  0.000  0.000  0.000  0.000  0.000  0.000  0.110
    5  0.004  0.000  0.086  0.000  0.000  0.000  0.017  0.000  0.000  0.108
tot    0.010  0.000  0.469  0.000  0.000  0.000  0.030  0.000  0.000  0.509
 
band    32 # energy    4.51604969 # occ.  0.00000000
 
ion      s     py     pz     px    dxy    dyz    dz2    dxz  x2-y2    tot
    1  0.007  0.000  0.009  0.000  0.000  0.000  0.005  0.000  0.000  0.021
    2  0.004  0.000  0.002  0.000  0.000  0.000  0.003  0.000  0.000  0.010
    3  0.004  0.000  0.000  0.000  0.000  0.000  0.003  0.000  0.000  0.007
    4  0.004  0.000  0.002  0.000  0.000  0.000  0.003  0.000  0.000  0.009
    5  0.006  0.000  0.009  0.000  0.000  0.000  0.004  0.000  0.000  0.019
tot    0.025  0.000  0.021  0.000  0.000  0.000  0.019  0.000  0.000  0.066
 
band    33 # energy    5.85755053 # occ.  0.00000000
 
ion      s     py     pz     px    dxy    dyz    dz2    dxz  x2-y2    tot
    1  0.009  0.000  0.026  0.000  0.000  0.000  0.007  0.000  0.000  0.042
    2  0.002  0.000  0.016  0.000  0.000  0.000  0.001  0.000  0.000  0.019
    3  0.000  0.000  0.014  0.000  0.000  0.000  0.000  0.000  0.000  0.014
    4  0.002  0.000  0.016  0.000  0.000  0.000  0.002  0.000  0.000  0.020
    5  0.007  0.000  0.029  0.000  0.000  0.000  0.005  0.000  0.000  0.042
tot    0.020  0.000  0.101  0.000  0.000  0.000  0.016  0.000  0.000  0.137
 
band    34 # energy    7.73770314 # occ.  0.00000000
 
ion      s     py     pz     px    dxy    dyz    dz2    dxz  x2-y2    tot
    1  0.025  0.000  0.005  0.000  0.000  0.000  0.027  0.000  0.000  0.058
    2  0.019  0.000  0.001  0.000  0.000  0.000  0.018  0.000  0.000  0.038
    3  0.016  0.000  0.000  0.000  0.000  0.000  0.016  0.000  0.000  0.032
    4  0.017  0.000  0.001  0.000  0.000  0.000  0.017  0.000  0.000  0.035
    5  0.023  0.000  0.007  0.000  0.000  0.000  0.024  0.000  0.000  0.054
tot    0.100  0.000  0.013  0.000  0.000  0.000  0.103  0.000  0.000  0.216
 
band    35 # energy   10.86592621 # occ.  0.00000000
 
ion      s     py     pz     px    dxy    dyz    dz2    dxz  x2-y2    tot
    1  0.024  0.000  0.006  0.000  0.000  0.000  0.040  0.000  0.000  0.069
    2  0.009  0.000  0.014  0.000  0.000  0.000  0.014  0.000  0.000  0.037
    3  0.000  0.000  0.018  0.000  0.000  0.000  0.000  0.000  0.000  0.019
    4  0.005  0.000  0.016  0.000  0.000  0.000  0.008  0.000  0.000  0.029
    5  0.018  0.000  0.014  0.000  0.000  0.000  0.029  0.000  0.000  0.061
tot    0.056  0.000  0.068  0.000  0.000  0.000  0.092  0.000  0.000  0.215
 
band    36 # energy   11.53306323 # occ.  0.00000000
 
ion      s     py     pz     px    dxy    dyz    dz2    dxz  x2-y2    tot
    1  0.011  0.000  0.032  0.000  0.000  0.000  0.024  0.000  0.000  0.067
    2  0.039  0.000  0.010  0.000  0.000  0.000  0.071  0.000  0.000  0.120
    3  0.053  0.000  0.000  0.000  0.000  0.000  0.098  0.000  0.000  0.151
    4  0.038  0.000  0.012  0.000  0.000  0.000  0.069  0.000  0.000  0.119
    5  0.015  0.000  0.020  0.000  0.000  0.000  0.033  0.000  0.000  0.069
tot    0.157  0.000  0.074  0.000  0.000  0.000  0.294  0.000  0.000  0.525
 
band    37 # energy   15.37132106 # occ.  0.00000000
 
ion      s     py     pz     px    dxy    dyz    dz2    dxz  x2-y2    tot
    1  0.000  0.046  0.000  0.000  0.000  0.007  0.000  0.000  0.000  0.053
    2  0.000  0.147  0.000  0.001  0.000  0.003  0.000  0.000  0.000  0.152
    3  0.000  0.209  0.000  0.001  0.000  0.000  0.000  0.000  0.000  0.210
    4  0.000  0.167  0.000  0.001  0.000  0.002  0.000  0.000  0.000  0.170
    5  0.000  0.060  0.000  0.000  0.000  0.009  0.000  0.000  0.000  0.069
tot    0.000  0.628  0.000  0.004  0.000  0.022  0.000  0.000  0.000  0.655
 
band    38 # energy   15.37132106 # occ.  0.00000000
 
ion      s     py     pz     px    dxy    dyz    dz2    dxz  x2-y2    tot
    1  0.000  0.000  0.000  0.046  0.000  0.000  0.000  0.007  0.000  0.053
    2  0.000  0.001  0.000  0.147  0.000  0.000  0.000  0.003  0.000  0.152
    3  0.000  0.001  0.000  0.209  0.000  0.000  0.000  0.000  0.000  0.210
    4  0.000  0.001  0.000  0.167  0.000  0.000  0.000  0.002  0.000  0.170
    5  0.000  0.000  0.000  0.060  0.000  0.000  0.000  0.009  0.000  0.069
tot    0.000  0.004  0.000  0.628  0.000  0.000  0.000  0.022  0.000  0.655
 
band    39 # energy   15.69895187 # occ.  0.00000000
 
ion      s     py     pz     px    dxy    dyz    dz2    dxz  x2-y2    tot
    1  0.004  0.000  0.031  0.000  0.000  0.000  0.015  0.000  0.000  0.050
    2  0.004  0.000  0.027  0.000  0.000  0.000  0.021  0.000  0.000  0.052
    3  0.013  0.000  0.000  0.000  0.000  0.000  0.076  0.000  0.000  0.090
    4  0.003  0.000  0.030  0.000  0.000  0.000  0.015  0.000  0.000  0.048
    5  0.004  0.000  0.033  0.000  0.000  0.000  0.013  0.000  0.000  0.049
tot    0.027  0.000  0.122  0.000  0.000  0.000  0.141  0.000  0.000  0.290
 
band    40 # energy   16.29639964 # occ.  0.00000000
 
ion      s     py     pz     px    dxy    dyz    dz2    dxz  x2-y2    tot
    1  0.009  0.000  0.014  0.000  0.000  0.000  0.068  0.000  0.000  0.091
    2  0.010  0.000  0.011  0.000  0.000  0.000  0.068  0.000  0.000  0.090
    3  0.000  0.000  0.043  0.000  0.000  0.000  0.001  0.000  0.000  0.043
    4  0.011  0.000  0.005  0.000  0.000  0.000  0.082  0.000  0.000  0.098
    5  0.010  0.000  0.010  0.000  0.000  0.000  0.072  0.000  0.000  0.092
tot    0.040  0.000  0.083  0.000  0.000  0.000  0.291  0.000  0.000  0.414
 
band    41 # energy   16.93617737 # occ.  0.00000000
 
ion      s     py     pz     px    dxy    dyz    dz2    dxz  x2-y2    tot
    1  0.000  0.079  0.000  0.066  0.000  0.005  0.000  0.004  0.000  0.154
    2  0.000  0.086  0.000  0.071  0.000  0.004  0.000  0.004  0.000  0.165
    3  0.000  0.000  0.000  0.000  0.000  0.022  0.000  0.018  0.000  0.040
    4  0.000  0.078  0.000  0.065  0.000  0.006  0.000  0.005  0.000  0.153
    5  0.000  0.079  0.000  0.066  0.000  0.005  0.000  0.004  0.000  0.154
tot    0.000  0.322  0.000  0.268  0.000  0.042  0.000  0.035  0.000  0.666
 
band    42 # energy   16.93617737 # occ.  0.00000000
 
ion      s     py     pz     px    dxy    dyz    dz2    dxz  x2-y2    tot
    1  0.000  0.066  0.000  0.079  0.000  0.004  0.000  0.005  0.000  0.154
    2  0.000  0.071  0.000  0.086  0.000  0.004  0.000  0.004  0.000  0.165
    3  0.000  0.000  0.000  0.000  0.000  0.018  0.000  0.022  0.000  0.040
    4  0.000  0.065  0.000  0.078  0.000  0.005  0.000  0.006  0.000  0.153
    5  0.000  0.066  0.000  0.079  0.000  0.004  0.000  0.005  0.000  0.154
tot    0.000  0.268  0.000  0.322  0.000  0.035  0.000  0.042  0.000  0.666
 
band    43 # energy   19.27326579 # occ.  0.00000000
 
ion      s     py     pz     px    dxy    dyz    dz2    dxz  x2-y2    tot
    1  0.000  0.066  0.000  0.110  0.000  0.000  0.000  0.000  0.000  0.176
    2  0.000  0.000  0.000  0.000  0.000  0.028  0.000  0.047  0.000  0.074
    3  0.000  0.064  0.000  0.107  0.000  0.000  0.000  0.000  0.000  0.171
    4  0.000  0.000  0.000  0.000  0.000  0.027  0.000  0.046  0.000  0.074
    5  0.000  0.060  0.000  0.101  0.000  0.000  0.000  0.000  0.000  0.161
tot    0.000  0.189  0.000  0.318  0.000  0.055  0.000  0.093  0.000  0.655
 
band    44 # energy   19.27326579 # occ.  0.00000000
 
ion      s     py     pz     px    dxy    dyz    dz2    dxz  x2-y2    tot
    1  0.000  0.110  0.000  0.066  0.000  0.000  0.000  0.000  0.000  0.176
    2  0.000  0.000  0.000  0.000  0.000  0.047  0.000  0.028  0.000  0.074
    3  0.000  0.107  0.000  0.064  0.000  0.000  0.000  0.000  0.000  0.171
    4  0.000  0.000  0.000  0.000  0.000  0.046  0.000  0.027  0.000  0.074
    5  0.000  0.101  0.000  0.060  0.000  0.000  0.000  0.000  0.000  0.161
tot    0.000  0.318  0.000  0.189  0.000  0.093  0.000  0.055  0.000  0.655
 
band    45 # energy   19.81856557 # occ.  0.00000000
 
ion      s     py     pz     px    dxy    dyz    dz2    dxz  x2-y2    tot
    1  0.000  0.000  0.000  0.000  0.048  0.000  0.000  0.000  0.000  0.048
    2  0.000  0.000  0.000  0.000  0.243  0.000  0.000  0.000  0.000  0.243
    3  0.000  0.000  0.000  0.000  0.383  0.000  0.000  0.000  0.000  0.383
    4  0.000  0.000  0.000  0.000  0.259  0.000  0.000  0.000  0.000  0.259
    5  0.000  0.000  0.000  0.000  0.053  0.000  0.000  0.000  0.000  0.053
tot    0.000  0.000  0.000  0.000  0.986  0.000  0.000  0.000  0.000  0.986
 
band    46 # energy   20.37832558 # occ.  0.00000000
 
ion      s     py     pz     px    dxy    dyz    dz2    dxz  x2-y2    tot
    1  0.000  0.000  0.000  0.000  0.175  0.000  0.000  0.000  0.000  0.175
    2  0.000  0.000  0.000  0.000  0.289  0.000  0.000  0.000  0.000  0.289
    3  0.000  0.000  0.000  0.000  0.000  0.000  0.000  0.000  0.000  0.000
    4  0.000  0.000  0.000  0.000  0.279  0.000  0.000  0.000  0.000  0.279
    5  0.000  0.000  0.000  0.000  0.166  0.000  0.000  0.000  0.000  0.166
tot    0.000  0.000  0.000  0.000  0.908  0.000  0.000  0.000  0.000  0.908
 
band    47 # energy   21.25912051 # occ.  0.00000000
 
ion      s     py     pz     px    dxy    dyz    dz2    dxz  x2-y2    tot
    1  0.003  0.000  0.019  0.000  0.000  0.000  0.001  0.000  0.000  0.024
    2  0.001  0.000  0.000  0.000  0.000  0.000  0.107  0.000  0.000  0.108
    3  0.000  0.000  0.007  0.000  0.000  0.000  0.004  0.000  0.000  0.011
    4  0.002  0.000  0.002  0.000  0.000  0.000  0.100  0.000  0.000  0.104
    5  0.003  0.000  0.016  0.000  0.000  0.000  0.001  0.000  0.000  0.020
tot    0.009  0.000  0.044  0.000  0.000  0.000  0.213  0.000  0.000  0.267
 
band    48 # energy   21.27892857 # occ.  0.00000000
 
ion      s     py     pz     px    dxy    dyz    dz2    dxz  x2-y2    tot
    1  0.000  0.000  0.000  0.000  0.240  0.000  0.000  0.000  0.000  0.240
    2  0.000  0.000  0.000  0.000  0.008  0.000  0.000  0.000  0.000  0.008
    3  0.000  0.000  0.000  0.000  0.234  0.000  0.000  0.000  0.000  0.234
    4  0.000  0.000  0.000  0.000  0.015  0.000  0.000  0.000  0.000  0.015
    5  0.000  0.000  0.000  0.000  0.261  0.000  0.000  0.000  0.000  0.261
tot    0.000  0.000  0.000  0.000  0.757  0.000  0.000  0.000  0.000  0.757
 

 k-point     2 :    0.11111111 0.00000000 0.00000000     weight = 0.04938272

band     1 # energy   -8.18637463 # occ.  1.00000000
 
ion      s     py     pz     px    dxy    dyz    dz2    dxz  x2-y2    tot
    1  0.039  0.001  0.006  0.001  0.000  0.000  0.000  0.000  0.000  0.047
    2  0.158  0.002  0.003  0.002  0.000  0.000  0.000  0.000  0.000  0.167
    3  0.241  0.004  0.000  0.004  0.000  0.000  0.000  0.000  0.000  0.248
    4  0.190  0.003  0.002  0.003  0.000  0.000  0.000  0.000  0.000  0.198
    5  0.055  0.001  0.008  0.001  0.000  0.000  0.000  0.000  0.000  0.066
tot    0.683  0.010  0.020  0.010  0.001  0.001  0.000  0.001  0.000  0.726
 
band     2 # energy   -7.02703798 # occ.  1.00000000
 
ion      s     py     pz     px    dxy    dyz    dz2    dxz  x2-y2    tot
    1  0.128  0.002  0.012  0.002  0.000  0.001  0.001  0.001  0.000  0.145
    2  0.187  0.003  0.005  0.003  0.000  0.000  0.005  0.000  0.000  0.203
    3  0.001  0.000  0.037  0.000  0.000  0.002  0.000  0.002  0.000  0.042
    4  0.164  0.003  0.008  0.003  0.000  0.000  0.005  0.000  0.000  0.183
    5  0.132  0.002  0.011  0.002  0.000  0.001  0.001  0.001  0.000  0.149
tot    0.611  0.009  0.072  0.009  0.001  0.004  0.012  0.004  0.000  0.722
 
band     3 # energy   -5.39228537 # occ.  1.00000000
 
ion      s     py     pz     px    dxy    dyz    dz2    dxz  x2-y2    tot
    1  0.148  0.002  0.002  0.002  0.001  0.000  0.018  0.000  0.000  0.174
    2  0.004  0.000  0.059  0.000  0.000  0.005  0.004  0.005  0.000  0.076
    3  0.155  0.003  0.000  0.003  0.002  0.000  0.063  0.000  0.000  0.225