<?xml version="1.0" encoding="ISO-8859-1"?>
<modeling>
 <generator>
  <i name="program" type="string">vasp </i>
  <i name="version" type="string">5.4.1  </i>
  <i name="subversion" type="string">24Jun15 (build Jul 23 2016 23:05:46) complex                          serial </i>
  <i name="platform" type="string">IFC91_ompi </i>
  <i name="date" type="string">2020 03 17 </i>
  <i name="time" type="string">15:17:07 </i>
 </generator>
 <incar>
  <i type="int" name="ISTART">     1</i>
  <i type="string" name="PREC">normal       (precision level)</i>
  <i type="logical" name="ADDGRID"> T  </i>
  <i type="int" name="NELM">    60</i>
  <i type="int" name="NELMIN">     6</i>
  <i name="EDIFF">      0.00000001</i>
  <i type="int" name="NEDOS">  2000</i>
  <i type="logical" name="LREAL"> F  </i>
  <i type="int" name="ISMEAR">     0</i>
  <i name="SIGMA">      0.05000000</i>
  <i type="logical" name="LWAVE"> T  </i>
  <i type="logical" name="LCHARG"> T  </i>
  <i type="logical" name="LOPTICS"> T  </i>
  <i type="logical" name="LSCALAPACK"> F  </i>
  <v type="int" name="KPOINT_BSE">    -1     0     0     0</v>
  <i name="CSHIFT">      0.10000000</i>
  <i type="int" name="NELM">    60</i>
  <i name="CSHIFT">      0.10000000</i>
 </incar>
 <kpoints>
  <generation param="Gamma">
   <v type="int" name="divisions">      16       16       16 </v>
   <v name="usershift">      0.00000000       0.00000000       0.00000000 </v>
   <v name="genvec1">      0.06250000       0.00000000       0.00000000 </v>
   <v name="genvec2">      0.00000000       0.06250000       0.00000000 </v>
   <v name="genvec3">      0.00000000       0.00000000       0.06250000 </v>
   <v name="shift">      0.00000000       0.00000000       0.00000000 </v>
  </generation>
  <varray name="kpointlist" >
   <v>       0.00000000       0.00000000       0.00000000 </v>
   <v>       0.06250000       0.00000000       0.00000000 </v>
   <v>       0.12500000       0.00000000       0.00000000 </v>
   <v>       0.18750000       0.00000000       0.00000000 </v>
   <v>       0.25000000       0.00000000       0.00000000 </v>
   <v>       0.31250000       0.00000000       0.00000000 </v>
   <v>       0.37500000       0.00000000       0.00000000 </v>
   <v>       0.43750000       0.00000000       0.00000000 </v>
   <v>       0.50000000       0.00000000       0.00000000 </v>
   <v>       0.06250000       0.06250000       0.00000000 </v>
   <v>       0.12500000       0.06250000       0.00000000 </v>
   <v>       0.18750000       0.06250000       0.00000000 </v>
   <v>       0.25000000       0.06250000       0.00000000 </v>
   <v>       0.31250000       0.06250000       0.00000000 </v>
   <v>       0.37500000       0.06250000       0.00000000 </v>
   <v>       0.43750000       0.06250000       0.00000000 </v>
   <v>       0.50000000       0.06250000       0.00000000 </v>
   <v>      -0.43750000       0.06250000       0.00000000 </v>
   <v>      -0.37500000       0.06250000       0.00000000 </v>
   <v>      -0.31250000       0.06250000       0.00000000 </v>
   <v>      -0.25000000       0.06250000       0.00000000 </v>
   <v>      -0.18750000       0.06250000       0.00000000 </v>
   <v>      -0.12500000       0.06250000       0.00000000 </v>
   <v>      -0.06250000       0.06250000       0.00000000 </v>
   <v>       0.12500000       0.12500000       0.00000000 </v>
   <v>       0.18750000       0.12500000       0.00000000 </v>
   <v>       0.25000000       0.12500000       0.00000000 </v>
   <v>       0.31250000       0.12500000       0.00000000 </v>
   <v>       0.37500000       0.12500000       0.00000000 </v>
   <v>       0.43750000       0.12500000       0.00000000 </v>
   <v>       0.50000000       0.12500000       0.00000000 </v>
   <v>      -0.43750000       0.12500000       0.00000000 </v>
   <v>      -0.37500000       0.12500000       0.00000000 </v>
   <v>      -0.31250000       0.12500000       0.00000000 </v>
   <v>      -0.25000000       0.12500000       0.00000000 </v>
   <v>      -0.18750000       0.12500000       0.00000000 </v>
   <v>      -0.12500000       0.12500000       0.00000000 </v>
   <v>       0.18750000       0.18750000       0.00000000 </v>
   <v>       0.25000000       0.18750000       0.00000000 </v>
   <v>       0.31250000       0.18750000       0.00000000 </v>
   <v>       0.37500000       0.18750000       0.00000000 </v>
   <v>       0.43750000       0.18750000       0.00000000 </v>
   <v>       0.50000000       0.18750000       0.00000000 </v>
   <v>      -0.43750000       0.18750000       0.00000000 </v>
   <v>      -0.37500000       0.18750000       0.00000000 </v>
   <v>      -0.31250000       0.18750000       0.00000000 </v>
   <v>      -0.25000000       0.18750000       0.00000000 </v>
   <v>      -0.18750000       0.18750000       0.00000000 </v>
   <v>       0.25000000       0.25000000       0.00000000 </v>
   <v>       0.31250000       0.25000000       0.00000000 </v>
   <v>       0.37500000       0.25000000       0.00000000 </v>
   <v>       0.43750000       0.25000000       0.00000000 </v>
   <v>       0.50000000       0.25000000       0.00000000 </v>
   <v>      -0.43750000       0.25000000       0.00000000 </v>
   <v>      -0.37500000       0.25000000       0.00000000 </v>
   <v>      -0.31250000       0.25000000       0.00000000 </v>
   <v>      -0.25000000       0.25000000       0.00000000 </v>
   <v>       0.31250000       0.31250000       0.00000000 </v>
   <v>       0.37500000       0.31250000       0.00000000 </v>
   <v>       0.43750000       0.31250000       0.00000000 </v>
   <v>       0.50000000       0.31250000       0.00000000 </v>
   <v>      -0.43750000       0.31250000       0.00000000 </v>
   <v>      -0.37500000       0.31250000       0.00000000 </v>
   <v>      -0.31250000       0.31250000       0.00000000 </v>
   <v>       0.37500000       0.37500000       0.00000000 </v>
   <v>       0.43750000       0.37500000       0.00000000 </v>
   <v>       0.50000000       0.37500000       0.00000000 </v>
   <v>      -0.43750000       0.37500000       0.00000000 </v>
   <v>      -0.37500000       0.37500000       0.00000000 </v>
   <v>       0.43750000       0.43750000       0.00000000 </v>
   <v>       0.50000000       0.43750000       0.00000000 </v>
   <v>      -0.43750000       0.43750000       0.00000000 </v>
   <v>       0.50000000       0.50000000       0.00000000 </v>
   <v>       0.18750000       0.12500000       0.06250000 </v>
   <v>       0.25000000       0.12500000       0.06250000 </v>
   <v>       0.31250000       0.12500000       0.06250000 </v>
   <v>       0.37500000       0.12500000       0.06250000 </v>
   <v>       0.43750000       0.12500000       0.06250000 </v>
   <v>       0.50000000       0.12500000       0.06250000 </v>
   <v>      -0.43750000       0.12500000       0.06250000 </v>
   <v>       0.25000000       0.18750000       0.06250000 </v>
   <v>       0.31250000       0.18750000       0.06250000 </v>
   <v>       0.37500000       0.18750000       0.06250000 </v>
   <v>       0.43750000       0.18750000       0.06250000 </v>
   <v>       0.50000000       0.18750000       0.06250000 </v>
   <v>      -0.43750000       0.18750000       0.06250000 </v>
   <v>      -0.37500000       0.18750000       0.06250000 </v>
   <v>      -0.31250000       0.18750000       0.06250000 </v>
   <v>      -0.25000000       0.18750000       0.06250000 </v>
   <v>      -0.18750000       0.18750000       0.06250000 </v>
   <v>      -0.12500000       0.18750000       0.06250000 </v>
   <v>       0.31250000       0.25000000       0.06250000 </v>
   <v>       0.37500000       0.25000000       0.06250000 </v>
   <v>       0.43750000       0.25000000       0.06250000 </v>
   <v>       0.50000000       0.25000000       0.06250000 </v>
   <v>      -0.43750000       0.25000000       0.06250000 </v>
   <v>      -0.37500000       0.25000000       0.06250000 </v>
   <v>      -0.31250000       0.25000000       0.06250000 </v>
   <v>      -0.25000000       0.25000000       0.06250000 </v>
   <v>      -0.18750000       0.25000000       0.06250000 </v>
   <v>       0.37500000       0.31250000       0.06250000 </v>
   <v>       0.43750000       0.31250000       0.06250000 </v>
   <v>       0.50000000       0.31250000       0.06250000 </v>
   <v>      -0.43750000       0.31250000       0.06250000 </v>
   <v>      -0.37500000       0.31250000       0.06250000 </v>
   <v>      -0.31250000       0.31250000       0.06250000 </v>
   <v>      -0.25000000       0.31250000       0.06250000 </v>
   <v>       0.43750000       0.37500000       0.06250000 </v>
   <v>       0.50000000       0.37500000       0.06250000 </v>
   <v>      -0.43750000       0.37500000       0.06250000 </v>
   <v>      -0.37500000       0.37500000       0.06250000 </v>
   <v>      -0.31250000       0.37500000       0.06250000 </v>
   <v>       0.50000000       0.43750000       0.06250000 </v>
   <v>      -0.43750000       0.43750000       0.06250000 </v>
   <v>      -0.37500000       0.43750000       0.06250000 </v>
   <v>      -0.43750000       0.50000000       0.06250000 </v>
   <v>       0.37500000       0.25000000       0.12500000 </v>
   <v>       0.43750000       0.25000000       0.12500000 </v>
   <v>       0.50000000       0.25000000       0.12500000 </v>
   <v>      -0.43750000       0.25000000       0.12500000 </v>
   <v>      -0.37500000       0.25000000       0.12500000 </v>
   <v>       0.43750000       0.31250000       0.12500000 </v>
   <v>       0.50000000       0.31250000       0.12500000 </v>
   <v>      -0.43750000       0.31250000       0.12500000 </v>
   <v>      -0.37500000       0.31250000       0.12500000 </v>
   <v>      -0.31250000       0.31250000       0.12500000 </v>
   <v>      -0.25000000       0.31250000       0.12500000 </v>
   <v>      -0.18750000       0.31250000       0.12500000 </v>
   <v>       0.50000000       0.37500000       0.12500000 </v>
   <v>      -0.43750000       0.37500000       0.12500000 </v>
   <v>      -0.37500000       0.37500000       0.12500000 </v>
   <v>      -0.31250000       0.37500000       0.12500000 </v>
   <v>      -0.25000000       0.37500000       0.12500000 </v>
   <v>      -0.43750000       0.43750000       0.12500000 </v>
   <v>      -0.37500000       0.43750000       0.12500000 </v>
   <v>      -0.31250000       0.43750000       0.12500000 </v>
   <v>      -0.37500000       0.50000000       0.12500000 </v>
   <v>      -0.43750000       0.37500000       0.18750000 </v>
   <v>      -0.37500000       0.37500000       0.18750000 </v>
   <v>      -0.31250000       0.37500000       0.18750000 </v>
   <v>      -0.37500000       0.43750000       0.18750000 </v>
   <v>      -0.31250000       0.43750000       0.18750000 </v>
   <v>      -0.25000000       0.43750000       0.18750000 </v>
   <v>      -0.31250000       0.50000000       0.18750000 </v>
   <v>      -0.25000000       0.50000000       0.25000000 </v>
  </varray>
  <varray name="weights" >
   <v>       0.00024414 </v>
   <v>       0.00195312 </v>
   <v>       0.00195312 </v>
   <v>       0.00195312 </v>
   <v>       0.00195312 </v>
   <v>       0.00195312 </v>
   <v>       0.00195312 </v>
   <v>       0.00195312 </v>
   <v>       0.00097656 </v>
   <v>       0.00146484 </v>
   <v>       0.00585938 </v>
   <v>       0.00585938 </v>
   <v>       0.00585938 </v>
   <v>       0.00585938 </v>
   <v>       0.00585938 </v>
   <v>       0.00585938 </v>
   <v>       0.00585938 </v>
   <v>       0.00585938 </v>
   <v>       0.00585938 </v>
   <v>       0.00585938 </v>
   <v>       0.00585938 </v>
   <v>       0.00585938 </v>
   <v>       0.00585938 </v>
   <v>       0.00292969 </v>
   <v>       0.00146484 </v>
   <v>       0.00585938 </v>
   <v>       0.00585938 </v>
   <v>       0.00585938 </v>
   <v>       0.00585938 </v>
   <v>       0.00585938 </v>
   <v>       0.00585938 </v>
   <v>       0.00585938 </v>
   <v>       0.00585938 </v>
   <v>       0.00585938 </v>
   <v>       0.00585938 </v>
   <v>       0.00585938 </v>
   <v>       0.00292969 </v>
   <v>       0.00146484 </v>
   <v>       0.00585938 </v>
   <v>       0.00585938 </v>
   <v>       0.00585938 </v>
   <v>       0.00585938 </v>
   <v>       0.00585938 </v>
   <v>       0.00585938 </v>
   <v>       0.00585938 </v>
   <v>       0.00585938 </v>
   <v>       0.00585938 </v>
   <v>       0.00292969 </v>
   <v>       0.00146484 </v>
   <v>       0.00585938 </v>
   <v>       0.00585938 </v>
   <v>       0.00585938 </v>
   <v>       0.00585938 </v>
   <v>       0.00585938 </v>
   <v>       0.00585938 </v>
   <v>       0.00585938 </v>
   <v>       0.00292969 </v>
   <v>       0.00146484 </v>
   <v>       0.00585938 </v>
   <v>       0.00585938 </v>
   <v>       0.00585938 </v>
   <v>       0.00585938 </v>
   <v>       0.00585938 </v>
   <v>       0.00292969 </v>
   <v>       0.00146484 </v>
   <v>       0.00585938 </v>
   <v>       0.00585938 </v>
   <v>       0.00585938 </v>
   <v>       0.00292969 </v>
   <v>       0.00146484 </v>
   <v>       0.00585938 </v>
   <v>       0.00292969 </v>
   <v>       0.00073242 </v>
   <v>       0.00585938 </v>
   <v>       0.01171875 </v>
   <v>       0.01171875 </v>
   <v>       0.01171875 </v>
   <v>       0.01171875 </v>
   <v>       0.01171875 </v>
   <v>       0.00585938 </v>
   <v>       0.00585938 </v>
   <v>       0.01171875 </v>
   <v>       0.01171875 </v>
   <v>       0.01171875 </v>
   <v>       0.01171875 </v>
   <v>       0.01171875 </v>
   <v>       0.01171875 </v>
   <v>       0.01171875 </v>
   <v>       0.01171875 </v>
   <v>       0.01171875 </v>
   <v>       0.00585938 </v>
   <v>       0.00585938 </v>
   <v>       0.01171875 </v>
   <v>       0.01171875 </v>
   <v>       0.01171875 </v>
   <v>       0.01171875 </v>
   <v>       0.01171875 </v>
   <v>       0.01171875 </v>
   <v>       0.01171875 </v>
   <v>       0.00585938 </v>
   <v>       0.00585938 </v>
   <v>       0.01171875 </v>
   <v>       0.01171875 </v>
   <v>       0.01171875 </v>
   <v>       0.01171875 </v>
   <v>       0.01171875 </v>
   <v>       0.00585938 </v>
   <v>       0.00585938 </v>
   <v>       0.01171875 </v>
   <v>       0.01171875 </v>
   <v>       0.01171875 </v>
   <v>       0.00585938 </v>
   <v>       0.00585938 </v>
   <v>       0.01171875 </v>
   <v>       0.00585938 </v>
   <v>       0.00292969 </v>
   <v>       0.00585938 </v>
   <v>       0.01171875 </v>
   <v>       0.01171875 </v>
   <v>       0.01171875 </v>
   <v>       0.00585938 </v>
   <v>       0.00585938 </v>
   <v>       0.01171875 </v>
   <v>       0.01171875 </v>
   <v>       0.01171875 </v>
   <v>       0.01171875 </v>
   <v>       0.01171875 </v>
   <v>       0.00585938 </v>
   <v>       0.00585938 </v>
   <v>       0.01171875 </v>
   <v>       0.01171875 </v>
   <v>       0.01171875 </v>
   <v>       0.00585938 </v>
   <v>       0.00585938 </v>
   <v>       0.01171875 </v>
   <v>       0.00585938 </v>
   <v>       0.00292969 </v>
   <v>       0.00585938 </v>
   <v>       0.01171875 </v>
   <v>       0.00585938 </v>
   <v>       0.00585938 </v>
   <v>       0.01171875 </v>
   <v>       0.00585938 </v>
   <v>       0.00292969 </v>
   <v>       0.00146484 </v>
  </varray>
 </kpoints>
 <parameters>
  <separator name="general" >
   <i type="string" name="SYSTEM">unknown system</i>
   <i type="logical" name="LCOMPAT"> F  </i>
  </separator>
  <separator name="electronic" >
   <i type="string" name="PREC">normal</i>
   <i name="ENMAX">    208.68000000</i>
   <i name="ENAUG">    462.75800000</i>
   <i name="EDIFF">      0.00000001</i>
   <i type="int" name="IALGO">    38</i>
   <i type="int" name="IWAVPR">     0</i>
   <i type="int" name="NBANDS">     8</i>
   <i name="NELECT">      8.00000000</i>
   <i type="int" name="TURBO">     0</i>
   <i type="int" name="IRESTART">     0</i>
   <i type="int" name="NREBOOT">     0</i>
   <i type="int" name="NMIN">     0</i>
   <i name="EREF">      0.00000000</i>
   <separator name="electronic smearing" >
    <i type="int" name="ISMEAR">     0</i>
    <i name="SIGMA">      0.05000000</i>
    <i name="KSPACING">      0.50000000</i>
    <i type="logical" name="KGAMMA"> T  </i>
   </separator>
   <separator name="electronic projectors" >
    <i type="logical" name="LREAL"> F  </i>
    <v name="ROPT">      0.00000000      0.00000000</v>
    <i type="int" name="LMAXPAW">  -100</i>
    <i type="int" name="LMAXMIX">     2</i>
    <i type="logical" name="NLSPLINE"> F  </i>
   </separator>
   <separator name="electronic startup" >
    <i type="int" name="ISTART">     1</i>
    <i type="int" name="ICHARG">     0</i>
    <i type="int" name="INIWAV">     1</i>
   </separator>
   <separator name="electronic spin" >
    <i type="int" name="ISPIN">     1</i>
    <i type="logical" name="LNONCOLLINEAR"> F  </i>
    <v name="MAGMOM">      1.00000000      1.00000000</v>
    <i name="NUPDOWN">     -1.00000000</i>
    <i type="logical" name="LSORBIT"> F  </i>
    <v name="SAXIS">      0.00000000      0.00000000      1.00000000</v>
    <i type="logical" name="LSPIRAL"> F  </i>
    <v name="QSPIRAL">      0.00000000      0.00000000      0.00000000</v>
    <i type="logical" name="LZEROZ"> F  </i>
   </separator>
   <separator name="electronic exchange-correlation" >
    <i type="logical" name="LASPH"> F  </i>
    <i type="logical" name="LMETAGGA"> F  </i>
   </separator>
   <separator name="electronic convergence" >
    <i type="int" name="NELM">    60</i>
    <i type="int" name="NELMDL">     0</i>
    <i type="int" name="NELMIN">     6</i>
    <i name="ENINI">    208.68000000</i>
    <separator name="electronic convergence detail" >
     <i type="logical" name="LDIAG"> T  </i>
     <i type="logical" name="LSUBROT"> F  </i>
     <i name="WEIMIN">      0.00000000</i>
     <i name="EBREAK">      0.00000000</i>
     <i name="DEPER">      0.30000000</i>
     <i type="int" name="NRMM">     4</i>
     <i name="TIME">      0.40000000</i>
    </separator>
   </separator>
   <separator name="electronic mixer" >
    <i name="AMIX">      0.40000000</i>
    <i name="BMIX">      1.00000000</i>
    <i name="AMIN">      0.10000000</i>
    <i name="AMIX_MAG">      1.60000000</i>
    <i name="BMIX_MAG">      1.00000000</i>
    <separator name="electronic mixer details" >
     <i type="int" name="IMIX">     4</i>
     <i type="logical" name="MIXFIRST"> F  </i>
     <i type="int" name="MAXMIX">   -45</i>
     <i name="WC">    100.00000000</i>
     <i type="int" name="INIMIX">     1</i>
     <i type="int" name="MIXPRE">     1</i>
     <i type="int" name="MREMOVE">     5</i>
    </separator>
   </separator>
   <separator name="electronic dipolcorrection" >
    <i type="logical" name="LDIPOL"> F  </i>
    <i type="logical" name="LMONO"> F  </i>
    <i type="int" name="IDIPOL">     0</i>
    <i name="EPSILON">      1.00000000</i>
    <v name="DIPOL">   -100.00000000   -100.00000000   -100.00000000</v>
    <i name="EFIELD">      0.00000000</i>
   </separator>
  </separator>
  <separator name="grids" >
   <i type="int" name="NGX">    14</i>
   <i type="int" name="NGY">    14</i>
   <i type="int" name="NGZ">    14</i>
   <i type="int" name="NGXF">    28</i>
   <i type="int" name="NGYF">    28</i>
   <i type="int" name="NGZF">    28</i>
   <i type="logical" name="ADDGRID"> T  </i>
  </separator>
  <separator name="ionic" >
   <i type="int" name="NSW">     0</i>
   <i type="int" name="IBRION">    -1</i>
   <i type="int" name="ISIF">     2</i>
   <i name="PSTRESS">      0.00000000</i>
   <i name="EDIFFG">      0.00000010</i>
   <i type="int" name="NFREE">     0</i>
   <i name="POTIM">      0.50000000</i>
   <i name="SMASS">     -3.00000000</i>
   <i name="SCALEE">      1.00000000</i>
  </separator>
  <separator name="ionic md" >
   <i name="TEBEG">      0.00010000</i>
   <i name="TEEND">      0.00010000</i>
   <i type="int" name="NBLOCK">     1</i>
   <i type="int" name="KBLOCK">     1</i>
   <i type="int" name="NPACO">   256</i>
   <i name="APACO">     16.00000000</i>
  </separator>
  <separator name="symmetry" >
   <i type="int" name="ISYM">     2</i>
   <i name="SYMPREC">      0.00001000</i>
  </separator>
  <separator name="dos" >
   <i type="logical" name="LORBIT"> F  </i>
   <v name="RWIGS">     -1.00000000     -1.00000000</v>
   <i type="int" name="NEDOS">  2000</i>
   <i name="EMIN">     10.00000000</i>
   <i name="EMAX">    -10.00000000</i>
   <i name="EFERMI">      0.00000000</i>
  </separator>
  <separator name="writing" >
   <i type="int" name="NWRITE">     2</i>
   <i type="logical" name="LWAVE"> T  </i>
   <i type="logical" name="LCHARG"> T  </i>
   <i type="logical" name="LPARD"> F  </i>
   <i type="logical" name="LVTOT"> F  </i>
   <i type="logical" name="LVHAR"> F  </i>
   <i type="logical" name="LELF"> F  </i>
   <i type="logical" name="LOPTICS"> T  </i>
   <v name="STM">      0.00000000      0.00000000      0.00000000      0.00000000      0.00000000      0.00000000      0.00000000</v>
  </separator>
  <separator name="performance" >
   <i type="int" name="NPAR">     1</i>
   <i type="int" name="NSIM">     4</i>
   <i type="int" name="NBLK">    -1</i>
   <i type="logical" name="LPLANE"> T  </i>
   <i type="logical" name="LSCALAPACK"> F  </i>
   <i type="logical" name="LSCAAWARE"> F  </i>
   <i type="logical" name="LSCALU"> F  </i>
   <i type="logical" name="LASYNC"> F  </i>
   <i type="logical" name="LORBITALREAL"> F  </i>
  </separator>
  <separator name="miscellaneous" >
   <i type="int" name="IDIOT">     3</i>
   <i type="logical" name="LMUSIC"> F  </i>
   <v name="POMASS">     74.92200000     69.72300000</v>
   <v name="DARWINR">      0.00000000      0.00000000</v>
   <v name="DARWINV">      1.00000000      1.00000000</v>
   <i type="logical" name="LCORR"> T  </i>
  </separator>
  <i type="logical" name="GGA_COMPAT"> T  </i>
  <i type="logical" name="LBERRY"> F  </i>
  <i type="int" name="ICORELEVEL">     0</i>
  <i type="logical" name="LDAU"> F  </i>
  <i type="int" name="I_CONSTRAINED_M">     0</i>
  <separator name="electronic exchange-correlation" >
   <i type="string" name="GGA">--</i>
   <i type="int" name="VOSKOWN">     0</i>
   <i type="logical" name="LHFCALC"> F  </i>
   <i type="string" name="PRECFOCK"></i>
   <i type="logical" name="LSYMGRAD"> F  </i>
   <i type="logical" name="LHFONE"> F  </i>
   <i type="logical" name="LRHFCALC"> F  </i>
   <i type="logical" name="LTHOMAS"> F  </i>
   <i type="logical" name="LMODELHF"> F  </i>
   <i name="ENCUT4O">     -1.00000000</i>
   <i type="int" name="EXXOEP">     0</i>
   <i type="int" name="FOURORBIT">     0</i>
   <i name="AEXX">      0.00000000</i>
   <i name="HFALPHA">      0.00000000</i>
   <i name="MCALPHA">      0.00000000</i>
   <i name="ALDAX">      1.00000000</i>
   <i name="AGGAX">      1.00000000</i>
   <i name="ALDAC">      1.00000000</i>
   <i name="AGGAC">      1.00000000</i>
   <i type="int" name="NKREDX">     1</i>
   <i type="int" name="NKREDY">     1</i>
   <i type="int" name="NKREDZ">     1</i>
   <i type="logical" name="SHIFTRED"> F  </i>
   <i type="logical" name="ODDONLY"> F  </i>
   <i type="logical" name="EVENONLY"> F  </i>
   <i type="int" name="LMAXFOCK">     0</i>
   <i type="int" name="NMAXFOCKAE">     0</i>
   <i type="logical" name="LFOCKAEDFT"> F  </i>
   <i name="HFSCREEN">      0.00000000</i>
   <i name="HFSCREENC">      0.00000000</i>
   <i type="int" name="NBANDSGWLOW">     0</i>
  </separator>
  <separator name="vdW DFT" >
   <i type="logical" name="LUSE_VDW"> F  </i>
   <i name="Zab_VDW">     -0.84910000</i>
   <i name="PARAM1">      0.12340000</i>
   <i name="PARAM2">      1.00000000</i>
   <i name="PARAM3">      0.00000000</i>
  </separator>
  <separator name="model GW" >
   <i type="int" name="MODEL_GW">     0</i>
   <i name="MODEL_EPS0">     13.55375226</i>
   <i name="MODEL_ALPHA">      1.00000000</i>
  </separator>
  <separator name="linear response parameters" >
   <i type="logical" name="LEPSILON"> F  </i>
   <i type="logical" name="LRPA"> F  </i>
   <i type="logical" name="LNABLA"> F  </i>
   <i type="logical" name="LVEL"> F  </i>
   <i type="int" name="KINTER">     0</i>
   <i name="CSHIFT">      0.10000000</i>
   <i name="OMEGAMAX">     -1.00000000</i>
   <i name="DEG_THRESHOLD">      0.00200000</i>
  </separator>
  <separator name="orbital magnetization" >
   <i type="logical" name="NUCIND"> F  </i>
   <v name="MAGPOS">      0.00000000      0.00000000      0.00000000</v>
   <i type="logical" name="LNICSALL"> T  </i>
   <i type="logical" name="ORBITALMAG"> F  </i>
   <i type="logical" name="LMAGBLOCH"> F  </i>
   <i type="logical" name="LCHIMAG"> F  </i>
   <i type="logical" name="LGAUGE"> T  </i>
   <i type="int" name="MAGATOM">     0</i>
   <v name="MAGDIPOL">      0.00000000      0.00000000      0.00000000</v>
   <v name="AVECCONST">      0.00000000      0.00000000      0.00000000</v>
  </separator>
  <separator name="response functions" >
   <i type="logical" name="LADDER"> F  </i>
   <i type="logical" name="LFXC"> F  </i>
   <i type="logical" name="LHARTREE"> T  </i>
   <i type="int" name="IBSE">     0</i>
   <v type="int" name="KPOINT">    -1     0     0     0</v>
   <i type="logical" name="LTCTE"> F  </i>
   <i type="logical" name="LTETE"> F  </i>
   <i type="logical" name="LTRIPLET"> F  </i>
   <i type="logical" name="LFXCEPS"> F  </i>
   <i type="logical" name="LFXHEG"> F  </i>
   <i type="int" name="NATURALO">     0</i>
   <i type="logical" name="L2ORDER"> F  </i>
   <i type="logical" name="LUSEW"> F  </i>
   <i name="ENCUTGW">     -2.00000000</i>
   <i name="ENCUTGWSOFT">     -2.00000000</i>
   <i name="ENCUTLF">     -1.00000000</i>
   <i type="int" name="LMAXMP2">    -1</i>
   <i name="SCISSOR">      0.00000000</i>
   <i type="int" name="NOMEGA">     0</i>
   <i type="int" name="NOMEGAR">     0</i>
   <i type="int" name="NBANDSGW">    -1</i>
   <i type="int" name="NBANDSO">    -1</i>
   <i type="int" name="NBANDSV">    -1</i>
   <i type="int" name="NELM">    60</i>
   <i type="int" name="NELMHF">     1</i>
   <i type="int" name="DIM">     3</i>
   <i type="int" name="ANTIRES">     0</i>
   <i name="OMEGAMAX">    -30.00000000</i>
   <i name="OMEGAMIN">    -30.00000000</i>
   <i name="OMEGATL">   -200.00000000</i>
   <i type="int" name="OMEGAGRID">     0</i>
   <i name="CSHIFT">      0.10000000</i>
   <i type="logical" name="SELFENERGY"> F  </i>
   <i type="logical" name="LSPECTRAL"> F  </i>
   <i type="logical" name="LSPECTRALGW"> F  </i>
   <i type="logical" name="LSINGLES"> F  </i>
   <i type="logical" name="LFERMIGW"> F  </i>
   <i type="logical" name="ODDONLYGW"> F  </i>
   <i type="logical" name="EVENONLYGW"> F  </i>
   <i type="int" name="NKREDLFX">     1</i>
   <i type="int" name="NKREDLFY">     1</i>
   <i type="int" name="NKREDLFZ">     1</i>
   <i type="int" name="MAXMEM">  1800</i>
   <i type="int" name="TELESCOPE">     0</i>
   <i type="int" name="TAUPAR">     1</i>
   <i type="int" name="OMEGAPAR">    -1</i>
   <i name="LAMBDA">      1.00000000</i>
  </separator>
  <separator name="External order field" >
   <i name="OFIELD_KAPPA">      0.00000000</i>
   <v name="OFIELD_K">      0.00000000      0.00000000      0.00000000</v>
   <i name="OFIELD_Q6_NEAR">      0.00000000</i>
   <i name="OFIELD_Q6_FAR">      0.00000000</i>
   <i name="OFIELD_A">      0.00000000</i>
  </separator>
 </parameters>
 <atominfo>
  <atoms>       2 </atoms>
  <types>       2 </types>
  <array name="atoms" >
   <dimension dim="1">ion</dimension>
   <field type="string">element</field>
   <field type="int">atomtype</field>
   <set>
    <rc><c>As</c><c>   1</c></rc>
    <rc><c>Ga</c><c>   2</c></rc>
   </set>
  </array>
  <array name="atomtypes" >
   <dimension dim="1">type</dimension>
   <field type="int">atomspertype</field>
   <field type="string">element</field>
   <field>mass</field>
   <field>valence</field>
   <field type="string">pseudopotential</field>
   <set>
    <rc><c>   1</c><c>As</c><c>     74.92200000</c><c>      5.00000000</c><c> PAW_PBE As 06Sep2000                   </c></rc>
    <rc><c>   1</c><c>Ga</c><c>     69.72300000</c><c>      3.00000000</c><c> PAW_PBE Ga 08Apr2002                   </c></rc>
   </set>
  </array>
 </atominfo>
 <structure name="initialpos" >
  <crystal>
   <varray name="basis" >
    <v>       0.00000000       2.82685000       2.82685000 </v>
    <v>       2.82685000       0.00000000       2.82685000 </v>
    <v>       2.82685000       2.82685000       0.00000000 </v>
   </varray>
   <i name="volume">     45.17917421 </i>
   <varray name="rec_basis" >
    <v>      -0.17687532       0.17687532       0.17687532 </v>
    <v>       0.17687532      -0.17687532       0.17687532 </v>
    <v>       0.17687532       0.17687532      -0.17687532 </v>
   </varray>
  </crystal>
  <varray name="positions" >
   <v>       0.25000000       0.25000000       0.25000000 </v>
   <v>       0.00000000       0.00000000       0.00000000 </v>
  </varray>
 </structure>
 <calculation>
  <scstep>
   <time name="dav">    2.73    0.71</time>
   <time name="total">    3.14    0.82</time>
   <energy>
    <i name="alphaZ">     18.92447533 </i>
    <i name="ewald">   -229.15493751 </i>
    <i name="hartreedc">   -268.59198822 </i>
    <i name="XCdc">     -0.12562919 </i>
    <i name="pawpsdc">   1588.31965273 </i>
    <i name="pawaedc">  -1624.80350715 </i>
    <i name="eentropy">     -0.00091328 </i>
    <i name="bandstr">    -51.66700838 </i>
    <i name="atom">    228.93272543 </i>
    <i name="e_fr_energy">   -338.16713021 </i>
    <i name="e_wo_entrp">   -338.16621694 </i>
    <i name="e_0_energy">   -338.16667358 </i>
   </energy>
  </scstep>
  <scstep>
   <time name="dav">    2.79    0.74</time>
   <time name="total">    3.12    0.83</time>
   <energy>
    <i name="e_fr_energy">   -139.53547327 </i>
    <i name="e_wo_entrp">   -139.53547327 </i>
    <i name="e_0_energy">   -139.53547327 </i>
   </energy>
  </scstep>
  <scstep>
   <time name="dav">    2.85    0.72</time>
   <time name="total">    3.20    0.81</time>
   <energy>
    <i name="e_fr_energy">    -16.26186299 </i>
    <i name="e_wo_entrp">    -16.26178593 </i>
    <i name="e_0_energy">    -16.26182446 </i>
   </energy>
  </scstep>
  <scstep>
   <time name="dav">    2.47    0.63</time>
   <time name="total">    2.84    0.73</time>
   <energy>
    <i name="e_fr_energy">    -10.67317554 </i>
    <i name="e_wo_entrp">    -10.67317553 </i>
    <i name="e_0_energy">    -10.67317553 </i>
   </energy>
  </scstep>
  <scstep>
   <time name="dav">    3.02    0.78</time>
   <time name="total">    3.45    0.90</time>
   <energy>
    <i name="e_fr_energy">     -8.26405250 </i>
    <i name="e_wo_entrp">     -8.26405250 </i>
    <i name="e_0_energy">     -8.26405250 </i>
   </energy>
  </scstep>
  <scstep>
   <time name="dav">    3.46    1.52</time>
   <time name="total">    3.86    1.63</time>
   <energy>
    <i name="e_fr_energy">     -8.25258512 </i>
    <i name="e_wo_entrp">     -8.25258512 </i>
    <i name="e_0_energy">     -8.25258512 </i>
   </energy>
  </scstep>
  <scstep>
   <time name="dav">    2.90    0.76</time>
   <time name="total">    3.30    0.86</time>
   <energy>
    <i name="e_fr_energy">     -8.23732617 </i>
    <i name="e_wo_entrp">     -8.23732617 </i>
    <i name="e_0_energy">     -8.23732617 </i>
   </energy>
  </scstep>
  <scstep>
   <time name="dav">    2.40    0.62</time>
   <time name="total">    2.78    0.71</time>
   <energy>
    <i name="e_fr_energy">     -8.23697905 </i>
    <i name="e_wo_entrp">     -8.23697905 </i>
    <i name="e_0_energy">     -8.23697905 </i>
   </energy>
  </scstep>
  <scstep>
   <time name="dav">    2.66    0.67</time>
   <time name="total">    3.01    0.76</time>
   <energy>
    <i name="e_fr_energy">     -8.23580098 </i>
    <i name="e_wo_entrp">     -8.23580098 </i>
    <i name="e_0_energy">     -8.23580098 </i>
   </energy>
  </scstep>
  <scstep>
   <time name="dav">    2.18    0.55</time>
   <time name="total">    2.56    0.65</time>
   <energy>
    <i name="e_fr_energy">     -8.23585957 </i>
    <i name="e_wo_entrp">     -8.23585957 </i>
    <i name="e_0_energy">     -8.23585957 </i>
   </energy>
  </scstep>
  <scstep>
   <time name="dav">    3.43    0.88</time>
   <time name="total">    3.88    0.99</time>
   <energy>
    <i name="e_fr_energy">     -8.23581320 </i>
    <i name="e_wo_entrp">     -8.23581320 </i>
    <i name="e_0_energy">     -8.23581320 </i>
   </energy>
  </scstep>
  <scstep>
   <time name="dav">    2.80    0.72</time>
   <time name="total">    3.22    0.82</time>
   <energy>
    <i name="e_fr_energy">     -8.23581420 </i>
    <i name="e_wo_entrp">     -8.23581420 </i>
    <i name="e_0_energy">     -8.23581420 </i>
   </energy>
  </scstep>
  <scstep>
   <time name="dav">    3.70    0.95</time>
   <time name="total">    4.11    1.05</time>
   <energy>
    <i name="e_fr_energy">     -8.23581397 </i>
    <i name="e_wo_entrp">     -8.23581397 </i>
    <i name="e_0_energy">     -8.23581397 </i>
   </energy>
  </scstep>
  <scstep>
   <time name="dav">    2.44    0.62</time>
   <time name="total">    2.84    0.72</time>
   <energy>
    <i name="e_fr_energy">     -8.23581378 </i>
    <i name="e_wo_entrp">     -8.23581378 </i>
    <i name="e_0_energy">     -8.23581378 </i>
   </energy>
  </scstep>
  <scstep>
   <time name="dav">    2.74    0.70</time>
   <time name="total">    3.18    0.82</time>
   <energy>
    <i name="e_fr_energy">     -8.23581372 </i>
    <i name="e_wo_entrp">     -8.23581372 </i>
    <i name="e_0_energy">     -8.23581372 </i>
   </energy>
  </scstep>
  <scstep>
   <time name="dav">    1.67    0.42</time>
   <time name="total">    2.11    0.53</time>
   <energy>
    <i name="e_fr_energy">     -8.23581375 </i>
    <i name="e_wo_entrp">     -8.23581375 </i>
    <i name="e_0_energy">     -8.23581375 </i>
   </energy>
  </scstep>
  <scstep>
   <time name="dav">    1.96    0.50</time>
   <time name="total">    2.14    0.55</time>
   <energy>
    <i name="alphaZ">     18.92447533 </i>
    <i name="ewald">   -229.15493751 </i>
    <i name="hartreedc">    -21.10707989 </i>
    <i name="XCdc">    -30.26926006 </i>
    <i name="pawpsdc">    133.87449040 </i>
    <i name="pawaedc">    -89.15877961 </i>
    <i name="eentropy">     -0.00000000 </i>
    <i name="bandstr">    -20.27744787 </i>
    <i name="atom">    228.93272543 </i>
    <i name="e_fr_energy">     -8.23581376 </i>
    <i name="e_wo_entrp">     -8.23581376 </i>
    <i name="e_0_energy">     -8.23581376 </i>
   </energy>
  </scstep>
  <structure>
   <crystal>
    <varray name="basis" >
     <v>       0.00000000       2.82685000       2.82685000 </v>
     <v>       2.82685000       0.00000000       2.82685000 </v>
     <v>       2.82685000       2.82685000       0.00000000 </v>
    </varray>
    <i name="volume">     45.17917421 </i>
    <varray name="rec_basis" >
     <v>      -0.17687532       0.17687532       0.17687532 </v>
     <v>       0.17687532      -0.17687532       0.17687532 </v>
     <v>       0.17687532       0.17687532      -0.17687532 </v>
    </varray>
   </crystal>
   <varray name="positions" >
    <v>       0.25000000       0.25000000       0.25000000 </v>
    <v>       0.00000000       0.00000000       0.00000000 </v>
   </varray>
  </structure>
  <varray name="forces" >
   <v>      -0.00000000      -0.00000000      -0.00000000 </v>
   <v>       0.00000000       0.00000000       0.00000000 </v>
  </varray>
  <varray name="stress" >
   <v>      39.21364345      -0.00000000      -0.00000000 </v>
   <v>       0.00000000      39.21364345       0.00000000 </v>
   <v>       0.00000000       0.00000000      39.21364345 </v>
  </varray>
  <energy>
   <i name="e_fr_energy">     -8.23581376 </i>
   <i name="e_wo_entrp">     -8.23581376 </i>
   <i name="e_0_energy">     -0.00000000 </i>
  </energy>
  <time name="totalsc">   53.97   15.18</time>
  <eigenvalues>
   <array>
    <dimension dim="1">band</dimension>
    <dimension dim="2">kpoint</dimension>
    <dimension dim="3">spin</dimension>
    <field>eigene</field>
    <field>occ</field>
    <set>
     <set comment="spin 1">
      <set comment="kpoint 1">
       <r>   -9.9370    1.0000 </r>
       <r>    2.7531    1.0000 </r>
       <r>    2.7535    1.0000 </r>
       <r>    2.7535    1.0000 </r>
       <r>    3.3561    0.0000 </r>
       <r>    6.5164    0.0000 </r>
       <r>    6.5165    0.0000 </r>
       <r>    6.5165    0.0000 </r>
      </set>
      <set comment="kpoint 2">
       <r>   -9.8944    1.0000 </r>
       <r>    1.9301    1.0000 </r>
       <r>    2.6881    1.0000 </r>
       <r>    2.6884    1.0000 </r>
       <r>    3.9772    0.0000 </r>
       <r>    6.5912    0.0000 </r>
       <r>    6.6146    0.0000 </r>
       <r>    6.6146    0.0000 </r>
      </set>
      <set comment="kpoint 3">
       <r>   -9.7686    1.0000 </r>
       <r>    0.8090    1.0000 </r>
       <r>    2.5187    1.0000 </r>
       <r>    2.5190    1.0000 </r>
       <r>    4.4047    0.0000 </r>
       <r>    6.8644    0.0000 </r>
       <r>    6.8644    0.0000 </r>
       <r>    6.9822    0.0000 </r>
      </set>
      <set comment="kpoint 4">
       <r>   -9.5647    1.0000 </r>
       <r>   -0.3128    1.0000 </r>
       <r>    2.3002    1.0000 </r>
       <r>    2.3005    1.0000 </r>
       <r>    4.4173    0.0000 </r>
       <r>    7.1590    0.0000 </r>
       <r>    7.1591    0.0000 </r>
       <r>    7.7667    0.0000 </r>
      </set>
      <set comment="kpoint 5">
       <r>   -9.2937    1.0000 </r>
       <r>   -1.3736    1.0000 </r>
       <r>    2.0793    1.0000 </r>
       <r>    2.0796    1.0000 </r>
       <r>    4.2570    0.0000 </r>
       <r>    7.3807    0.0000 </r>
       <r>    7.3807    0.0000 </r>
       <r>    8.7469    0.0000 </r>
      </set>
      <set comment="kpoint 6">
       <r>   -8.9768    1.0000 </r>
       <r>   -2.3252    1.0000 </r>
       <r>    1.8872    1.0000 </r>
       <r>    1.8874    1.0000 </r>
       <r>    4.0754    0.0000 </r>
       <r>    7.4719    0.0000 </r>
       <r>    7.4719    0.0000 </r>
       <r>    9.7443    0.0000 </r>
      </set>
      <set comment="kpoint 7">
       <r>   -8.6537    1.0000 </r>
       <r>   -3.1118    1.0000 </r>
       <r>    1.7409    1.0000 </r>
       <r>    1.7411    1.0000 </r>
       <r>    3.9278    0.0000 </r>
       <r>    7.4658    0.0000 </r>
       <r>    7.4658    0.0000 </r>
       <r>   10.4128    0.0000 </r>
      </set>
      <set comment="kpoint 8">
       <r>   -8.3941    1.0000 </r>
       <r>   -3.6532    1.0000 </r>
       <r>    1.6501    1.0000 </r>
       <r>    1.6503    1.0000 </r>
       <r>    3.8346    0.0000 </r>
       <r>    7.4304    0.0000 </r>
       <r>    7.4305    0.0000 </r>
       <r>   10.5223    0.0000 </r>
      </set>
      <set comment="kpoint 9">
       <r>   -8.2907    1.0000 </r>
       <r>   -3.8505    1.0000 </r>
       <r>    1.6199    1.0000 </r>
       <r>    1.6202    1.0000 </r>
       <r>    3.8029    0.0000 </r>
       <r>    7.4136    0.0000 </r>
       <r>    7.4137    0.0000 </r>
       <r>   10.5130    0.0000 </r>
      </set>
      <set comment="kpoint 10">
       <r>   -9.8802    1.0000 </r>
       <r>    1.8812    1.0000 </r>
       <r>    2.5568    1.0000 </r>
       <r>    2.5571    1.0000 </r>
       <r>    4.2129    0.0000 </r>
       <r>    6.3033    0.0000 </r>
       <r>    6.7905    0.0000 </r>
       <r>    6.7906    0.0000 </r>
      </set>
      <set comment="kpoint 11">
       <r>   -9.7821    1.0000 </r>
       <r>    1.0369    1.0000 </r>
       <r>    2.3431    1.0000 </r>
       <r>    2.4239    1.0000 </r>
       <r>    4.6827    0.0000 </r>
       <r>    6.2499    0.0000 </r>
       <r>    7.1036    0.0000 </r>
       <r>    7.1554    0.0000 </r>
      </set>
      <set comment="kpoint 12">
       <r>   -9.6038    1.0000 </r>
       <r>   -0.0120    1.0000 </r>
       <r>    2.1040    1.0000 </r>
       <r>    2.2365    1.0000 </r>
       <r>    4.8147    0.0000 </r>
       <r>    6.4988    0.0000 </r>
       <r>    7.4478    0.0000 </r>
       <r>    7.7355    0.0000 </r>
      </set>
      <set comment="kpoint 13">
       <r>   -9.3544    1.0000 </r>
       <r>   -1.0592    1.0000 </r>
       <r>    1.8825    1.0000 </r>
       <r>    1.9945    1.0000 </r>
       <r>    4.6994    0.0000 </r>
       <r>    6.8652    0.0000 </r>
       <r>    7.7070    0.0000 </r>
       <r>    8.4390    0.0000 </r>
      </set>
      <set comment="kpoint 14">
       <r>   -9.0507    1.0000 </r>
       <r>   -2.0304    1.0000 </r>
       <r>    1.7044    1.0000 </r>
       <r>    1.7483    1.0000 </r>
       <r>    4.5238    0.0000 </r>
       <r>    7.1175    0.0000 </r>
       <r>    7.8095    0.0000 </r>
       <r>    9.2027    0.0000 </r>
      </set>
      <set comment="kpoint 15">
       <r>   -8.7251    1.0000 </r>
       <r>   -2.8658    1.0000 </r>
       <r>    1.5311    1.0000 </r>
       <r>    1.5833    1.0000 </r>
       <r>    4.3655    0.0000 </r>
       <r>    7.2143    0.0000 </r>
       <r>    7.7767    0.0000 </r>
       <r>    9.9796    0.0000 </r>
      </set>
      <set comment="kpoint 16">
       <r>   -8.4361    1.0000 </r>
       <r>   -3.4908    1.0000 </r>
       <r>    1.3615    1.0000 </r>
       <r>    1.5260    1.0000 </r>
       <r>    4.2529    0.0000 </r>
       <r>    7.2417    0.0000 </r>
       <r>    7.6832    0.0000 </r>
       <r>   10.5234    0.0000 </r>
      </set>
      <set comment="kpoint 17">
       <r>   -8.2722    1.0000 </r>
       <r>   -3.8089    1.0000 </r>
       <r>    1.2504    1.0000 </r>
       <r>    1.5344    1.0000 </r>
       <r>    4.1970    0.0000 </r>
       <r>    7.2752    0.0000 </r>
       <r>    7.5899    0.0000 </r>
       <r>   10.6861    0.0000 </r>
      </set>
      <set comment="kpoint 18">
       <r>   -8.3073    1.0000 </r>
       <r>   -3.7425    1.0000 </r>
       <r>    1.2053    1.0000 </r>
       <r>    1.6076    1.0000 </r>
       <r>    4.2018    0.0000 </r>
       <r>    7.3467    0.0000 </r>
       <r>    7.5250    0.0000 </r>
       <r>   10.6903    0.0000 </r>
      </set>
      <set comment="kpoint 19">
       <r>   -8.5238    1.0000 </r>
       <r>   -3.3102    1.0000 </r>
       <r>    1.2292    1.0000 </r>
       <r>    1.7393    1.0000 </r>
       <r>    4.2669    0.0000 </r>
       <r>    7.4504    0.0000 </r>
       <r>    7.4847    0.0000 </r>
       <r>   10.4880    0.0000 </r>
      </set>
      <set comment="kpoint 20">
       <r>   -8.8337    1.0000 </r>
       <r>   -2.6052    1.0000 </r>
       <r>    1.3235    1.0000 </r>
       <r>    1.9212    1.0000 </r>
       <r>    4.3865    0.0000 </r>
       <r>    7.4339    0.0000 </r>
       <r>    7.5410    0.0000 </r>
       <r>    9.8336    0.0000 </r>
      </set>
      <set comment="kpoint 21">
       <r>   -9.1568    1.0000 </r>
       <r>   -1.7186    1.0000 </r>
       <r>    1.4878    1.0000 </r>
       <r>    2.1385    1.0000 </r>
       <r>    4.5450    0.0000 </r>
       <r>    7.3148    0.0000 </r>
       <r>    7.5146    0.0000 </r>
       <r>    8.9854    0.0000 </r>
      </set>
      <set comment="kpoint 22">
       <r>   -9.4450    1.0000 </r>
       <r>   -0.7205    1.0000 </r>
       <r>    1.7174    1.0000 </r>
       <r>    2.3672    1.0000 </r>
       <r>    4.6975    0.0000 </r>
       <r>    7.0946    0.0000 </r>
       <r>    7.2312    0.0000 </r>
       <r>    8.2467    0.0000 </r>
      </set>
      <set comment="kpoint 23">
       <r>   -9.6720    1.0000 </r>
       <r>    0.3215    1.0000 </r>
       <r>    2.0060    1.0000 </r>
       <r>    2.5688    1.0000 </r>
       <r>    4.7221    0.0000 </r>
       <r>    6.7833    0.0000 </r>
       <r>    6.8283    0.0000 </r>
       <r>    7.6441    0.0000 </r>
      </set>
      <set comment="kpoint 24">
       <r>   -9.8241    1.0000 </r>
       <r>    1.2917    1.0000 </r>
       <r>    2.3525    1.0000 </r>
       <r>    2.6915    1.0000 </r>
       <r>    4.4215    0.0000 </r>
       <r>    6.5484    0.0000 </r>
       <r>    6.6349    0.0000 </r>
       <r>    7.0832    0.0000 </r>
      </set>
      <set comment="kpoint 25">
       <r>   -9.7118    1.0000 </r>
       <r>    0.7854    1.0000 </r>
       <r>    2.0980    1.0000 </r>
       <r>    2.0982    1.0000 </r>
       <r>    5.1621    0.0000 </r>
       <r>    5.8834    0.0000 </r>
       <r>    7.4789    0.0000 </r>
       <r>    7.4789    0.0000 </r>
      </set>
      <set comment="kpoint 26">
       <r>   -9.5607    1.0000 </r>
       <r>    0.0485    1.0000 </r>
       <r>    1.8402    1.0000 </r>
       <r>    1.8639    1.0000 </r>
       <r>    5.3570    0.0000 </r>
       <r>    5.9106    0.0000 </r>
       <r>    7.8890    0.0000 </r>
       <r>    7.9457    0.0000 </r>
      </set>
      <set comment="kpoint 27">
       <r>   -9.3357    1.0000 </r>
       <r>   -0.8639    1.0000 </r>
       <r>    1.5918    1.0000 </r>
       <r>    1.6105    1.0000 </r>
       <r>    5.3267    0.0000 </r>
       <r>    6.2253    0.0000 </r>
       <r>    8.2187    0.0000 </r>
       <r>    8.3155    0.0000 </r>
      </set>
      <set comment="kpoint 28">
       <r>   -9.0507    1.0000 </r>
       <r>   -1.7819    1.0000 </r>
       <r>    1.2867    1.0000 </r>
       <r>    1.4330    1.0000 </r>
       <r>    5.1951    0.0000 </r>
       <r>    6.6510    0.0000 </r>
       <r>    8.3753    0.0000 </r>
       <r>    8.5460    0.0000 </r>
      </set>
      <set comment="kpoint 29">
       <r>   -8.7319    1.0000 </r>
       <r>   -2.6158    1.0000 </r>
       <r>    0.9957    1.0000 </r>
       <r>    1.3213    1.0000 </r>
       <r>    5.0487    0.0000 </r>
       <r>    6.9465    0.0000 </r>
       <r>    8.3560    0.0000 </r>
       <r>    8.9822    0.0000 </r>
      </set>
      <set comment="kpoint 30">
       <r>   -8.4277    1.0000 </r>
       <r>   -3.2859    1.0000 </r>
       <r>    0.7489    1.0000 </r>
       <r>    1.2801    1.0000 </r>
       <r>    4.9316    0.0000 </r>
       <r>    7.0578    0.0000 </r>
       <r>    8.2341    0.0000 </r>
       <r>    9.7183    0.0000 </r>
      </set>
      <set comment="kpoint 31">
       <r>   -8.2167    1.0000 </r>
       <r>   -3.6965    1.0000 </r>
       <r>    0.5651    1.0000 </r>
       <r>    1.3125    1.0000 </r>
       <r>    4.8644    0.0000 </r>
       <r>    7.1136    0.0000 </r>
       <r>    8.0852    0.0000 </r>
       <r>   10.5084    0.0000 </r>
      </set>
      <set comment="kpoint 32">
       <r>   -8.1841    1.0000 </r>
       <r>   -3.7558    1.0000 </r>
       <r>    0.4548    1.0000 </r>
       <r>    1.4147    1.0000 </r>
       <r>    4.8539    0.0000 </r>
       <r>    7.1966    0.0000 </r>
       <r>    7.9489    0.0000 </r>
       <r>   10.8939    0.0000 </r>
      </set>
      <set comment="kpoint 33">
       <r>   -8.3461    1.0000 </r>
       <r>   -3.4472    1.0000 </r>
       <r>    0.4268    1.0000 </r>
       <r>    1.5792    1.0000 </r>
       <r>    4.8996    0.0000 </r>
       <r>    7.3270    0.0000 </r>
       <r>    7.8316    0.0000 </r>
       <r>   10.5306    0.0000 </r>
      </set>
      <set comment="kpoint 34">
       <r>   -8.6304    1.0000 </r>
       <r>   -2.8507    1.0000 </r>
       <r>    0.4895    1.0000 </r>
       <r>    1.7937    1.0000 </r>
       <r>    4.9934    0.0000 </r>
       <r>    7.4777    0.0000 </r>
       <r>    7.7067    0.0000 </r>
       <r>    9.7053    0.0000 </r>
      </set>
      <set comment="kpoint 35">
       <r>   -8.9510    1.0000 </r>
       <r>   -2.0708    1.0000 </r>
       <r>    0.6546    1.0000 </r>
       <r>    2.0384    1.0000 </r>
       <r>    5.1136    0.0000 </r>
       <r>    7.5250    0.0000 </r>
       <r>    7.5293    0.0000 </r>
       <r>    8.9083    0.0000 </r>
      </set>
      <set comment="kpoint 36">
       <r>   -9.2502    1.0000 </r>
       <r>   -1.2067    1.0000 </r>
       <r>    0.9436    1.0000 </r>
       <r>    2.2816    1.0000 </r>
       <r>    5.1996    0.0000 </r>
       <r>    7.2467    0.0000 </r>
       <r>    7.2642    0.0000 </r>
       <r>    8.4738    0.0000 </r>
      </set>
      <set comment="kpoint 37">
       <r>   -9.4963    1.0000 </r>
       <r>   -0.3693    1.0000 </r>
       <r>    1.3933    1.0000 </r>
       <r>    2.4771    1.0000 </r>
       <r>    5.1021    0.0000 </r>
       <r>    6.8618    0.0000 </r>
       <r>    6.9910    0.0000 </r>
       <r>    8.1820    0.0000 </r>
      </set>
      <set comment="kpoint 38">
       <r>   -9.4371    1.0000 </r>
       <r>   -0.2896    1.0000 </r>
       <r>    1.5666    1.0000 </r>
       <r>    1.5668    1.0000 </r>
       <r>    5.1780    0.0000 </r>
       <r>    6.0470    0.0000 </r>
       <r>    8.3842    0.0000 </r>
       <r>    8.3842    0.0000 </r>
      </set>
      <set comment="kpoint 39">
       <r>   -9.2385    1.0000 </r>
       <r>   -0.9365    1.0000 </r>
       <r>    1.2798    1.0000 </r>
       <r>    1.3246    1.0000 </r>
       <r>    5.1177    0.0000 </r>
       <r>    6.1434    0.0000 </r>
       <r>    8.6676    0.0000 </r>
       <r>    8.8188    0.0000 </r>
      </set>
      <set comment="kpoint 40">
       <r>   -8.9764    1.0000 </r>
       <r>   -1.6993    1.0000 </r>
       <r>    0.9207    1.0000 </r>
       <r>    1.1383    1.0000 </r>
       <r>    5.2089    0.0000 </r>
       <r>    6.3253    0.0000 </r>
       <r>    8.5581    0.0000 </r>
       <r>    9.0779    0.0000 </r>
      </set>
      <set comment="kpoint 41">
       <r>   -8.6725    1.0000 </r>
       <r>   -2.4535    1.0000 </r>
       <r>    0.5426    1.0000 </r>
       <r>    1.0222    1.0000 </r>
       <r>    5.2132    0.0000 </r>
       <r>    6.7779    0.0000 </r>
       <r>    8.4674    0.0000 </r>
       <r>    9.1193    0.0000 </r>
      </set>
      <set comment="kpoint 42">
       <r>   -8.3665    1.0000 </r>
       <r>   -3.1058    1.0000 </r>
       <r>    0.2025    1.0000 </r>
       <r>    0.9828    1.0000 </r>
       <r>    5.1654    0.0000 </r>
       <r>    7.2251    0.0000 </r>
       <r>    8.7127    0.0000 </r>
       <r>    9.0055    0.0000 </r>
      </set>
      <set comment="kpoint 43">
       <r>   -8.1256    1.0000 </r>
       <r>   -3.5603    1.0000 </r>
       <r>   -0.0675    1.0000 </r>
       <r>    1.0216    1.0000 </r>
       <r>    5.1442    0.0000 </r>
       <r>    7.4003    0.0000 </r>
       <r>    8.8251    0.0000 </r>
       <r>    9.4527    0.0000 </r>
      </set>
      <set comment="kpoint 44">
       <r>   -8.0350    1.0000 </r>
       <r>   -3.7178    1.0000 </r>
       <r>   -0.2497    1.0000 </r>
       <r>    1.1354    1.0000 </r>
       <r>    5.1767    0.0000 </r>
       <r>    7.4643    0.0000 </r>
       <r>    8.6327    0.0000 </r>
       <r>   10.3550    0.0000 </r>
      </set>
      <set comment="kpoint 45">
       <r>   -8.1366    1.0000 </r>
       <r>   -3.5342    1.0000 </r>
       <r>   -0.3289    1.0000 </r>
       <r>    1.3170    1.0000 </r>
       <r>    5.2631    0.0000 </r>
       <r>    7.5497    0.0000 </r>
       <r>    8.4416    0.0000 </r>
       <r>   10.4576    0.0000 </r>
      </set>
      <set comment="kpoint 46">
       <r>   -8.3832    1.0000 </r>
       <r>   -3.0707    1.0000 </r>
       <r>   -0.2861    1.0000 </r>
       <r>    1.5519    1.0000 </r>
       <r>    5.3848    0.0000 </r>
       <r>    7.6844    0.0000 </r>
       <r>    8.2270    0.0000 </r>
       <r>    9.5718    0.0000 </r>
      </set>
      <set comment="kpoint 47">
       <r>   -8.6898    1.0000 </r>
       <r>   -2.4463    1.0000 </r>
       <r>   -0.0892    1.0000 </r>
       <r>    1.8176    1.0000 </r>
       <r>    5.4969    0.0000 </r>
       <r>    7.8017    0.0000 </r>
       <r>    7.9435    0.0000 </r>
       <r>    8.6985    0.0000 </r>
      </set>
      <set comment="kpoint 48">
       <r>   -8.9915    1.0000 </r>
       <r>   -1.7903    1.0000 </r>
       <r>    0.3110    1.0000 </r>
       <r>    2.0788    1.0000 </r>
       <r>    5.4911    0.0000 </r>
       <r>    7.5470    0.0000 </r>
       <r>    7.5907    0.0000 </r>
       <r>    8.4184    0.0000 </r>
      </set>
      <set comment="kpoint 49">
       <r>   -9.0670    1.0000 </r>
       <r>   -1.3229    1.0000 </r>
       <r>    1.0682    1.0000 </r>
       <r>    1.0683    1.0000 </r>
       <r>    4.7578    0.0000 </r>
       <r>    6.0584    0.0000 </r>
       <r>    9.3955    0.0000 </r>
       <r>    9.3956    0.0000 </r>
      </set>
      <set comment="kpoint 50">
       <r>   -8.8310    1.0000 </r>
       <r>   -1.8875    1.0000 </r>
       <r>    0.7662    1.0000 </r>
       <r>    0.8684    1.0000 </r>
       <r>    4.7413    0.0000 </r>
       <r>    5.9466    0.0000 </r>
       <r>    9.4419    0.0000 </r>
       <r>    9.8162    0.0000 </r>
      </set>
      <set comment="kpoint 51">
       <r>   -8.5489    1.0000 </r>
       <r>   -2.4977    1.0000 </r>
       <r>    0.3447    1.0000 </r>
       <r>    0.7400    1.0000 </r>
       <r>    4.8907    0.0000 </r>
       <r>    6.1082    0.0000 </r>
       <r>    9.2165    0.0000 </r>
       <r>    9.9823    0.0000 </r>
      </set>
      <set comment="kpoint 52">
       <r>   -8.2542    1.0000 </r>
       <r>   -3.0603    1.0000 </r>
       <r>   -0.0959    1.0000 </r>
       <r>    0.6908    1.0000 </r>
       <r>    4.9509    0.0000 </r>
       <r>    6.6974    0.0000 </r>
       <r>    9.0352    0.0000 </r>
       <r>    9.9209    0.0000 </r>
      </set>
      <set comment="kpoint 53">
       <r>   -8.0034    1.0000 </r>
       <r>   -3.4879    1.0000 </r>
       <r>   -0.4759    1.0000 </r>
       <r>    0.7232    1.0000 </r>
       <r>    4.9796    0.0000 </r>
       <r>    7.4884    0.0000 </r>
       <r>    9.0161    0.0000 </r>
       <r>    9.7341    0.0000 </r>
      </set>
      <set comment="kpoint 54">
       <r>   -7.8738    1.0000 </r>
       <r>   -3.6885    1.0000 </r>
       <r>   -0.7513    1.0000 </r>
       <r>    0.8351    1.0000 </r>
       <r>    5.0542    0.0000 </r>
       <r>    8.0523    0.0000 </r>
       <r>    9.4418    0.0000 </r>
       <r>    9.4955    0.0000 </r>
      </set>
      <set comment="kpoint 55">
       <r>   -7.9196    1.0000 </r>
       <r>   -3.6088    1.0000 </r>
       <r>   -0.8915    1.0000 </r>
       <r>    1.0192    1.0000 </r>
       <r>    5.1902    0.0000 </r>
       <r>    8.2355    0.0000 </r>
       <r>    9.2224    0.0000 </r>
       <r>   10.1395    0.0000 </r>
      </set>
      <set comment="kpoint 56">
       <r>   -8.1189    1.0000 </r>
       <r>   -3.2937    1.0000 </r>
       <r>   -0.8604    1.0000 </r>
       <r>    1.2621    1.0000 </r>
       <r>    5.3679    0.0000 </r>
       <r>    8.3344    0.0000 </r>
       <r>    8.8835    0.0000 </r>
       <r>    9.5268    0.0000 </r>
      </set>
      <set comment="kpoint 57">
       <r>   -8.3981    1.0000 </r>
       <r>   -2.8669    1.0000 </r>
       <r>   -0.6060    1.0000 </r>
       <r>    1.5405    1.0000 </r>
       <r>    5.5229    0.0000 </r>
       <r>    8.3957    0.0000 </r>
       <r>    8.4411    0.0000 </r>
       <r>    8.6310    0.0000 </r>
      </set>
      <set comment="kpoint 58">
       <r>   -8.6232    1.0000 </r>
       <r>   -2.2889    1.0000 </r>
       <r>    0.6523    1.0000 </r>
       <r>    0.6524    1.0000 </r>
       <r>    4.4276    0.0000 </r>
       <r>    5.6021    0.0000 </r>
       <r>   10.4562    0.0000 </r>
       <r>   10.4563    0.0000 </r>
      </set>
      <set comment="kpoint 59">
       <r>   -8.3693    1.0000 </r>
       <r>   -2.7661    1.0000 </r>
       <r>    0.3619    1.0000 </r>
       <r>    0.5069    1.0000 </r>
       <r>    4.4701    0.0000 </r>
       <r>    5.4544    0.0000 </r>
       <r>   10.4363    0.0000 </r>
       <r>   10.8387    0.0000 </r>
      </set>
      <set comment="kpoint 60">
       <r>   -8.0990    1.0000 </r>
       <r>   -3.2171    1.0000 </r>
       <r>   -0.0867    1.0000 </r>
       <r>    0.4419    1.0000 </r>
       <r>    4.6327    0.0000 </r>
       <r>    5.7267    0.0000 </r>
       <r>   10.2081    0.0000 </r>
       <r>   10.9027    0.0000 </r>
      </set>
      <set comment="kpoint 61">
       <r>   -7.8608    1.0000 </r>
       <r>   -3.5654    1.0000 </r>
       <r>   -0.5551    1.0000 </r>
       <r>    0.4603    1.0000 </r>
       <r>    4.7088    0.0000 </r>
       <r>    6.4750    0.0000 </r>
       <r>   10.0143    0.0000 </r>
       <r>   10.7424    0.0000 </r>
      </set>
      <set comment="kpoint 62">
       <r>   -7.7204    1.0000 </r>
       <r>   -3.7428    1.0000 </r>
       <r>   -0.9365    1.0000 </r>
       <r>    0.5612    1.0000 </r>
       <r>    4.8008    0.0000 </r>
       <r>    7.4546    0.0000 </r>
       <r>    9.9120    0.0000 </r>
       <r>   10.4575    0.0000 </r>
      </set>
      <set comment="kpoint 63">
       <r>   -7.7294    1.0000 </r>
       <r>   -3.7150    1.0000 </r>
       <r>   -1.1579    1.0000 </r>
       <r>    0.7380    1.0000 </r>
       <r>    4.9567    0.0000 </r>
       <r>    8.3978    0.0000 </r>
       <r>   10.0220    0.0000 </r>
       <r>   10.0679    0.0000 </r>
      </set>
      <set comment="kpoint 64">
       <r>   -7.8810    1.0000 </r>
       <r>   -3.5302    1.0000 </r>
       <r>   -1.1520    1.0000 </r>
       <r>    0.9786    1.0000 </r>
       <r>    5.1664    0.0000 </r>
       <r>    8.8036    0.0000 </r>
       <r>    9.5377    0.0000 </r>
       <r>    9.8888    0.0000 </r>
      </set>
      <set comment="kpoint 65">
       <r>   -8.1497    1.0000 </r>
       <r>   -3.1412    1.0000 </r>
       <r>    0.3427    1.0000 </r>
       <r>    0.3428    1.0000 </r>
       <r>    4.2315    0.0000 </r>
       <r>    5.0677    0.0000 </r>
       <r>   11.5204    0.0000 </r>
       <r>   11.5205    0.0000 </r>
      </set>
      <set comment="kpoint 66">
       <r>   -7.9181    1.0000 </r>
       <r>   -3.5012    1.0000 </r>
       <r>    0.0854    1.0000 </r>
       <r>    0.2583    1.0000 </r>
       <r>    4.3308    0.0000 </r>
       <r>    4.9907    0.0000 </r>
       <r>   11.5045    0.0000 </r>
       <r>   11.8320    0.0000 </r>
      </set>
      <set comment="kpoint 67">
       <r>   -7.7185    1.0000 </r>
       <r>   -3.7635    1.0000 </r>
       <r>   -0.3509    1.0000 </r>
       <r>    0.2582    1.0000 </r>
       <r>    4.4746    0.0000 </r>
       <r>    5.4430    0.0000 </r>
       <r>   11.2759    0.0000 </r>
       <r>   11.7578    0.0000 </r>
      </set>
      <set comment="kpoint 68">
       <r>   -7.6040    1.0000 </r>
       <r>   -3.8756    1.0000 </r>
       <r>   -0.7935    1.0000 </r>
       <r>    0.3424    1.0000 </r>
       <r>    4.5749    0.0000 </r>
       <r>    6.3362    0.0000 </r>
       <r>   11.0504    0.0000 </r>
       <r>   11.4136    0.0000 </r>
      </set>
      <set comment="kpoint 69">
       <r>   -7.6104    1.0000 </r>
       <r>   -3.8354    1.0000 </r>
       <r>   -1.1007    1.0000 </r>
       <r>    0.5059    1.0000 </r>
       <r>    4.7339    0.0000 </r>
       <r>    7.4172    0.0000 </r>
       <r>   10.7429    0.0000 </r>
       <r>   10.8398    0.0000 </r>
      </set>
      <set comment="kpoint 70">
       <r>   -7.7409    1.0000 </r>
       <r>   -3.7793    1.0000 </r>
       <r>    0.1529    1.0000 </r>
       <r>    0.1531    1.0000 </r>
       <r>    4.1813    0.0000 </r>
       <r>    4.6396    0.0000 </r>
       <r>   12.4841    0.0000 </r>
       <r>   12.4842    0.0000 </r>
      </set>
      <set comment="kpoint 71">
       <r>   -7.6085    1.0000 </r>
       <r>   -3.9542    1.0000 </r>
       <r>   -0.0545    1.0000 </r>
       <r>    0.1320    1.0000 </r>
       <r>    4.3120    0.0000 </r>
       <r>    4.6906    0.0000 </r>
       <r>   12.4355    0.0000 </r>
       <r>   12.6057    0.0000 </r>
      </set>
      <set comment="kpoint 72">
       <r>   -7.5592    1.0000 </r>
       <r>   -3.9789    1.0000 </r>
       <r>   -0.4396    1.0000 </r>
       <r>    0.1964    1.0000 </r>
       <r>    4.4222    0.0000 </r>
       <r>    5.3418    0.0000 </r>
       <r>   11.9924    0.0000 </r>
       <r>   12.1968    0.0000 </r>
      </set>
      <set comment="kpoint 73">
       <r>   -7.5663    1.0000 </r>
       <r>   -4.0308    1.0000 </r>
       <r>    0.0893    1.0000 </r>
       <r>    0.0895    1.0000 </r>
       <r>    4.2267    0.0000 </r>
       <r>    4.4301    0.0000 </r>
       <r>   12.9622    0.0000 </r>
       <r>   12.9623    0.0000 </r>
      </set>
      <set comment="kpoint 74">
       <r>   -9.6574    1.0000 </r>
       <r>    0.3751    1.0000 </r>
       <r>    1.8816    1.0000 </r>
       <r>    2.3565    1.0000 </r>
       <r>    5.0721    0.0000 </r>
       <r>    6.1596    0.0000 </r>
       <r>    7.3162    0.0000 </r>
       <r>    7.7283    0.0000 </r>
      </set>
      <set comment="kpoint 75">
       <r>   -9.4557    1.0000 </r>
       <r>   -0.5113    1.0000 </r>
       <r>    1.4751    1.0000 </r>
       <r>    2.2090    1.0000 </r>
       <r>    5.2031    0.0000 </r>
       <r>    6.3874    0.0000 </r>
       <r>    7.6490    0.0000 </r>
       <r>    8.2007    0.0000 </r>
      </set>
      <set comment="kpoint 76">
       <r>   -9.1879    1.0000 </r>
       <r>   -1.4523    1.0000 </r>
       <r>    1.1714    1.0000 </r>
       <r>    1.9934    1.0000 </r>
       <r>    5.1061    0.0000 </r>
       <r>    6.7851    0.0000 </r>
       <r>    7.9397    0.0000 </r>
       <r>    8.5638    0.0000 </r>
      </set>
      <set comment="kpoint 77">
       <r>   -8.8751    1.0000 </r>
       <r>   -2.3379    1.0000 </r>
       <r>    0.9528    1.0000 </r>
       <r>    1.7700    1.0000 </r>
       <r>    4.9561    0.0000 </r>
       <r>    7.0580    0.0000 </r>
       <r>    8.0130    0.0000 </r>
       <r>    9.1146    0.0000 </r>
      </set>
      <set comment="kpoint 78">
       <r>   -8.5570    1.0000 </r>
       <r>   -3.0854    1.0000 </r>
       <r>    0.8077    1.0000 </r>
       <r>    1.5810    1.0000 </r>
       <r>    4.8257    0.0000 </r>
       <r>    7.1370    0.0000 </r>
       <r>    7.9702    0.0000 </r>
       <r>    9.8742    0.0000 </r>
      </set>
      <set comment="kpoint 79">
       <r>   -8.3021    1.0000 </r>
       <r>   -3.6044    1.0000 </r>
       <r>    0.7265    1.0000 </r>
       <r>    1.4555    1.0000 </r>
       <r>    4.7410    0.0000 </r>
       <r>    7.1305    0.0000 </r>
       <r>    7.9137    0.0000 </r>
       <r>   10.5889    0.0000 </r>
      </set>
      <set comment="kpoint 80">
       <r>   -8.2009    1.0000 </r>
       <r>   -3.7949    1.0000 </r>
       <r>    0.7005    1.0000 </r>
       <r>    1.4112    1.0000 </r>
       <r>    4.7118    0.0000 </r>
       <r>    7.1204    0.0000 </r>
       <r>    7.8899    0.0000 </r>
       <r>   10.8691    0.0000 </r>
      </set>
      <set comment="kpoint 81">
       <r>   -9.3859    1.0000 </r>
       <r>   -0.5702    1.0000 </r>
       <r>    1.3445    1.0000 </r>
       <r>    1.7787    1.0000 </r>
       <r>    5.4440    0.0000 </r>
       <r>    6.0005    0.0000 </r>
       <r>    8.2524    0.0000 </r>
       <r>    8.3247    0.0000 </r>
      </set>
      <set comment="kpoint 82">
       <r>   -9.1420    1.0000 </r>
       <r>   -1.3420    1.0000 </r>
       <r>    0.9290    1.0000 </r>
       <r>    1.6078    1.0000 </r>
       <r>    5.5127    0.0000 </r>
       <r>    6.2439    0.0000 </r>
       <r>    8.3295    0.0000 </r>
       <r>    8.6355    0.0000 </r>
      </set>
      <set comment="kpoint 83">
       <r>   -8.8463    1.0000 </r>
       <r>   -2.1443    1.0000 </r>
       <r>    0.6076    1.0000 </r>
       <r>    1.4019    1.0000 </r>
       <r>    5.4540    0.0000 </r>
       <r>    6.6767    0.0000 </r>
       <r>    8.2992    0.0000 </r>
       <r>    8.8567    0.0000 </r>
      </set>
      <set comment="kpoint 84">
       <r>   -8.5311    1.0000 </r>
       <r>   -2.8741    1.0000 </r>
       <r>    0.3609    1.0000 </r>
       <r>    1.2326    1.0000 </r>
       <r>    5.3580    0.0000 </r>
       <r>    6.9830    0.0000 </r>
       <r>    8.4829    0.0000 </r>
       <r>    9.0429    0.0000 </r>
      </set>
      <set comment="kpoint 85">
       <r>   -8.2537    1.0000 </r>
       <r>   -3.4338    1.0000 </r>
       <r>    0.1755    1.0000 </r>
       <r>    1.1416    1.0000 </r>
       <r>    5.2886    0.0000 </r>
       <r>    7.0508    0.0000 </r>
       <r>    8.5703    0.0000 </r>
       <r>    9.6542    0.0000 </r>
      </set>
      <set comment="kpoint 86">
       <r>   -8.0986    1.0000 </r>
       <r>   -3.7189    1.0000 </r>
       <r>    0.0499    1.0000 </r>
       <r>    1.1437    1.0000 </r>
       <r>    5.2671    0.0000 </r>
       <r>    7.0533    0.0000 </r>
       <r>    8.5130    0.0000 </r>
       <r>   10.4856    0.0000 </r>
      </set>
      <set comment="kpoint 87">
       <r>   -8.1340    1.0000 </r>
       <r>   -3.6537    1.0000 </r>
       <r>   -0.0065    1.0000 </r>
       <r>    1.2358    1.0000 </r>
       <r>    5.2973    0.0000 </r>
       <r>    7.0812    0.0000 </r>
       <r>    8.4397    0.0000 </r>
       <r>   10.6041    0.0000 </r>
      </set>
      <set comment="kpoint 88">
       <r>   -8.3427    1.0000 </r>
       <r>   -3.2593    1.0000 </r>
       <r>    0.0206    1.0000 </r>
       <r>    1.4043    1.0000 </r>
       <r>    5.3736    0.0000 </r>
       <r>    7.1363    0.0000 </r>
       <r>    8.3608    0.0000 </r>
       <r>    9.8139    0.0000 </r>
      </set>
      <set comment="kpoint 89">
       <r>   -8.6417    1.0000 </r>
       <r>   -2.6346    1.0000 </r>
       <r>    0.1510    1.0000 </r>
       <r>    1.6274    1.0000 </r>
       <r>    5.4800    0.0000 </r>
       <r>    7.1273    0.0000 </r>
       <r>    8.2581    0.0000 </r>
       <r>    9.0285    0.0000 </r>
      </set>
      <set comment="kpoint 90">
       <r>   -8.9547    1.0000 </r>
       <r>   -1.8940    1.0000 </r>
       <r>    0.4138    1.0000 </r>
       <r>    1.8720    1.0000 </r>
       <r>    5.5743    0.0000 </r>
       <r>    6.8679    0.0000 </r>
       <r>    8.1928    0.0000 </r>
       <r>    8.4901    0.0000 </r>
      </set>
      <set comment="kpoint 91">
       <r>   -9.2347    1.0000 </r>
       <r>   -1.1522    1.0000 </r>
       <r>    0.8505    1.0000 </r>
       <r>    2.0884    1.0000 </r>
       <r>    5.5299    0.0000 </r>
       <r>    6.4994    0.0000 </r>
       <r>    7.9478    0.0000 </r>
       <r>    8.3512    0.0000 </r>
      </set>
      <set comment="kpoint 92">
       <r>   -9.0209    1.0000 </r>
       <r>   -1.4993    1.0000 </r>
       <r>    0.8481    1.0000 </r>
       <r>    1.1980    1.0000 </r>
       <r>    5.0944    0.0000 </r>
       <r>    6.1438    0.0000 </r>
       <r>    8.7451    0.0000 </r>
       <r>    9.3209    0.0000 </r>
      </set>
      <set comment="kpoint 93">
       <r>   -8.7477    1.0000 </r>
       <r>   -2.1445    1.0000 </r>
       <r>    0.4387    1.0000 </r>
       <r>    1.0185    1.0000 </r>
       <r>    5.2620    0.0000 </r>
       <r>    6.2779    0.0000 </r>
       <r>    8.5512    0.0000 </r>
       <r>    9.6680    0.0000 </r>
      </set>
      <set comment="kpoint 94">
       <r>   -8.4457    1.0000 </r>
       <r>   -2.7790    1.0000 </r>
       <r>    0.0709    1.0000 </r>
       <r>    0.8639    1.0000 </r>
       <r>    5.3272    0.0000 </r>
       <r>    6.7745    0.0000 </r>
       <r>    8.3781    0.0000 </r>
       <r>    9.7590    0.0000 </r>
      </set>
      <set comment="kpoint 95">
       <r>   -8.1625    1.0000 </r>
       <r>   -3.3100    1.0000 </r>
       <r>   -0.2425    1.0000 </r>
       <r>    0.7927    1.0000 </r>
       <r>    5.3304    0.0000 </r>
       <r>    7.3342    0.0000 </r>
       <r>    8.4725    0.0000 </r>
       <r>    9.7120    0.0000 </r>
      </set>
      <set comment="kpoint 96">
       <r>   -7.9720    1.0000 </r>
       <r>   -3.6357    1.0000 </r>
       <r>   -0.4802    1.0000 </r>
       <r>    0.8182    1.0000 </r>
       <r>    5.3649    0.0000 </r>
       <r>    7.5093    0.0000 </r>
       <r>    8.9960    0.0000 </r>
       <r>    9.7739    0.0000 </r>
      </set>
      <set comment="kpoint 97">
       <r>   -7.9489    1.0000 </r>
       <r>   -3.6695    1.0000 </r>
       <r>   -0.6207    1.0000 </r>
       <r>    0.9344    1.0000 </r>
       <r>    5.4540    0.0000 </r>
       <r>    7.5113    0.0000 </r>
       <r>    9.1110    0.0000 </r>
       <r>   10.3484    0.0000 </r>
      </set>
      <set comment="kpoint 98">
       <r>   -8.1034    1.0000 </r>
       <r>   -3.4066    1.0000 </r>
       <r>   -0.6400    1.0000 </r>
       <r>    1.1266    1.0000 </r>
       <r>    5.5883    0.0000 </r>
       <r>    7.5211    0.0000 </r>
       <r>    8.8581    0.0000 </r>
       <r>    9.9588    0.0000 </r>
      </set>
      <set comment="kpoint 99">
       <r>   -8.3703    1.0000 </r>
       <r>   -2.9400    1.0000 </r>
       <r>   -0.5030    1.0000 </r>
       <r>    1.3737    1.0000 </r>
       <r>    5.7313    0.0000 </r>
       <r>    7.5099    0.0000 </r>
       <r>    8.3827    0.0000 </r>
       <r>    9.3379    0.0000 </r>
      </set>
      <set comment="kpoint 100">
       <r>   -8.6719    1.0000 </r>
       <r>   -2.4006    1.0000 </r>
       <r>   -0.1620    1.0000 </r>
       <r>    1.6402    1.0000 </r>
       <r>    5.7893    0.0000 </r>
       <r>    7.2093    0.0000 </r>
       <r>    8.1680    0.0000 </r>
       <r>    8.8341    0.0000 </r>
      </set>
      <set comment="kpoint 101">
       <r>   -8.5849    1.0000 </r>
       <r>   -2.3838    1.0000 </r>
       <r>    0.4411    1.0000 </r>
       <r>    0.6982    1.0000 </r>
       <r>    4.7706    0.0000 </r>
       <r>    5.7972    0.0000 </r>
       <r>    9.4972    0.0000 </r>
       <r>   10.4195    0.0000 </r>
      </set>
      <set comment="kpoint 102">
       <r>   -8.3056    1.0000 </r>
       <r>   -2.8920    1.0000 </r>
       <r>    0.0388    1.0000 </r>
       <r>    0.5418    1.0000 </r>
       <r>    4.9833    0.0000 </r>
       <r>    5.9579    0.0000 </r>
       <r>    9.2888    0.0000 </r>
       <r>   10.7216    0.0000 </r>
      </set>
      <set comment="kpoint 103">
       <r>   -8.0337    1.0000 </r>
       <r>   -3.3345    1.0000 </r>
       <r>   -0.3851    1.0000 </r>
       <r>    0.4732    1.0000 </r>
       <r>    5.0787    0.0000 </r>
       <r>    6.6049    0.0000 </r>
       <r>    9.0753    0.0000 </r>
       <r>   10.7001    0.0000 </r>
      </set>
      <set comment="kpoint 104">
       <r>   -7.8320    1.0000 </r>
       <r>   -3.6313    1.0000 </r>
       <r>   -0.7479    1.0000 </r>
       <r>    0.5048    1.0000 </r>
       <r>    5.1469    0.0000 </r>
       <r>    7.4869    0.0000 </r>
       <r>    8.9583    0.0000 </r>
       <r>   10.5272    0.0000 </r>
      </set>
      <set comment="kpoint 105">
       <r>   -7.7697    1.0000 </r>
       <r>   -3.7094    1.0000 </r>
       <r>   -0.9897    1.0000 </r>
       <r>    0.6282    1.0000 </r>
       <r>    5.2672    0.0000 </r>
       <r>    8.1559    0.0000 </r>
       <r>    9.1502    0.0000 </r>
       <r>   10.3104    0.0000 </r>
      </set>
      <set comment="kpoint 106">
       <r>   -7.8721    1.0000 </r>
       <r>   -3.5600    1.0000 </r>
       <r>   -1.0626    1.0000 </r>
       <r>    0.8297    1.0000 </r>
       <r>    5.4444    0.0000 </r>
       <r>    8.3087    0.0000 </r>
       <r>    9.0938    0.0000 </r>
       <r>   10.4525    0.0000 </r>
      </set>
      <set comment="kpoint 107">
       <r>   -8.0954    1.0000 </r>
       <r>   -3.2659    1.0000 </r>
       <r>   -0.9140    1.0000 </r>
       <r>    1.0894    1.0000 </r>
       <r>    5.6400    0.0000 </r>
       <r>    8.2330    0.0000 </r>
       <r>    8.4056    0.0000 </r>
       <r>    9.9355    0.0000 </r>
      </set>
      <set comment="kpoint 108">
       <r>   -8.1225    1.0000 </r>
       <r>   -3.1741    1.0000 </r>
       <r>    0.1476    1.0000 </r>
       <r>    0.3157    1.0000 </r>
       <r>    4.5681    0.0000 </r>
       <r>    5.3149    0.0000 </r>
       <r>   10.4701    0.0000 </r>
       <r>   11.5033    0.0000 </r>
      </set>
      <set comment="kpoint 109">
       <r>   -7.8806    1.0000 </r>
       <r>   -3.5234    1.0000 </r>
       <r>   -0.2463    1.0000 </r>
       <r>    0.2182    1.0000 </r>
       <r>    4.7950    0.0000 </r>
       <r>    5.6057    0.0000 </r>
       <r>   10.2521    0.0000 </r>
       <r>   11.6969    0.0000 </r>
      </set>
      <set comment="kpoint 110">
       <r>   -7.6970    1.0000 </r>
       <r>   -3.7496    1.0000 </r>
       <r>   -0.6909    1.0000 </r>
       <r>    0.2434    1.0000 </r>
       <r>    4.8982    0.0000 </r>
       <r>    6.4151    0.0000 </r>
       <r>   10.0293    0.0000 </r>
       <r>   11.4247    0.0000 </r>
      </set>
      <set comment="kpoint 111">
       <r>   -7.6278    1.0000 </r>
       <r>   -3.8093    1.0000 </r>
       <r>   -1.0367    1.0000 </r>
       <r>    0.3634    1.0000 </r>
       <r>    5.0265    0.0000 </r>
       <r>    7.4450    0.0000 </r>
       <r>    9.8507    0.0000 </r>
       <r>   10.7378    0.0000 </r>
      </set>
      <set comment="kpoint 112">
       <r>   -7.6958    1.0000 </r>
       <r>   -3.7186    1.0000 </r>
       <r>   -1.1867    1.0000 </r>
       <r>    0.5651    1.0000 </r>
       <r>    5.2182    0.0000 </r>
       <r>    8.3999    0.0000 </r>
       <r>    9.5150    0.0000 </r>
       <r>   10.1402    0.0000 </r>
      </set>
      <set comment="kpoint 113">
       <r>   -7.7272    1.0000 </r>
       <r>   -3.7699    1.0000 </r>
       <r>   -0.0189    1.0000 </r>
       <r>    0.0678    1.0000 </r>
       <r>    4.5025    0.0000 </r>
       <r>    4.9227    0.0000 </r>
       <r>   11.4904    0.0000 </r>
       <r>   12.3875    0.0000 </r>
      </set>
      <set comment="kpoint 114">
       <r>   -7.5954    1.0000 </r>
       <r>   -3.9138    1.0000 </r>
       <r>   -0.3954    1.0000 </r>
       <r>    0.0570    1.0000 </r>
       <r>    4.7062    0.0000 </r>
       <r>    5.3999    0.0000 </r>
       <r>   11.2564    0.0000 </r>
       <r>   12.0336    0.0000 </r>
      </set>
      <set comment="kpoint 115">
       <r>   -7.5605    1.0000 </r>
       <r>   -3.9111    1.0000 </r>
       <r>   -0.7979    1.0000 </r>
       <r>    0.1678    1.0000 </r>
       <r>    4.8344    0.0000 </r>
       <r>    6.3439    0.0000 </r>
       <r>   10.9395    0.0000 </r>
       <r>   11.0808    0.0000 </r>
      </set>
      <set comment="kpoint 116">
       <r>   -7.5599    1.0000 </r>
       <r>   -4.0047    1.0000 </r>
       <r>   -0.0611    1.0000 </r>
       <r>   -0.0292    1.0000 </r>
       <r>    4.5288    0.0000 </r>
       <r>    4.7385    0.0000 </r>
       <r>   12.3264    0.0000 </r>
       <r>   12.3869    0.0000 </r>
      </set>
      <set comment="kpoint 117">
       <r>   -8.8859    1.0000 </r>
       <r>   -1.9138    1.0000 </r>
       <r>    0.3613    1.0000 </r>
       <r>    1.4601    1.0000 </r>
       <r>    5.8322    0.0000 </r>
       <r>    6.3168    0.0000 </r>
       <r>    8.1290    0.0000 </r>
       <r>    9.1160    0.0000 </r>
      </set>
      <set comment="kpoint 118">
       <r>   -8.5888    1.0000 </r>
       <r>   -2.5340    1.0000 </r>
       <r>   -0.0418    1.0000 </r>
       <r>    1.2376    1.0000 </r>
       <r>    5.9232    0.0000 </r>
       <r>    6.7022    0.0000 </r>
       <r>    7.9991    0.0000 </r>
       <r>    9.4914    0.0000 </r>
      </set>
      <set comment="kpoint 119">
       <r>   -8.2893    1.0000 </r>
       <r>   -3.1128    1.0000 </r>
       <r>   -0.2926    1.0000 </r>
       <r>    1.0245    1.0000 </r>
       <r>    5.8774    0.0000 </r>
       <r>    6.9749    0.0000 </r>
       <r>    8.3063    0.0000 </r>
       <r>    9.6981    0.0000 </r>
      </set>
      <set comment="kpoint 120">
       <r>   -8.0520    1.0000 </r>
       <r>   -3.5368    1.0000 </r>
       <r>   -0.4253    1.0000 </r>
       <r>    0.8761    1.0000 </r>
       <r>    5.8368    0.0000 </r>
       <r>    6.9655    0.0000 </r>
       <r>    8.8995    0.0000 </r>
       <r>    9.9871    0.0000 </r>
      </set>
      <set comment="kpoint 121">
       <r>   -7.9587    1.0000 </r>
       <r>   -3.6955    1.0000 </r>
       <r>   -0.4664    1.0000 </r>
       <r>    0.8230    1.0000 </r>
       <r>    5.8225    0.0000 </r>
       <r>    6.9386    0.0000 </r>
       <r>    9.1227    0.0000 </r>
       <r>   10.4738    0.0000 </r>
      </set>
      <set comment="kpoint 122">
       <r>   -8.4741    1.0000 </r>
       <r>   -2.6310    1.0000 </r>
       <r>   -0.0246    1.0000 </r>
       <r>    0.8229    1.0000 </r>
       <r>    5.6182    0.0000 </r>
       <r>    6.2958    0.0000 </r>
       <r>    8.3248    0.0000 </r>
       <r>   10.3102    0.0000 </r>
      </set>
      <set comment="kpoint 123">
       <r>   -8.1877    1.0000 </r>
       <r>   -3.1058    1.0000 </r>
       <r>   -0.3890    1.0000 </r>
       <r>    0.6105    1.0000 </r>
       <r>    5.8374    0.0000 </r>
       <r>    6.7410    0.0000 </r>
       <r>    8.1066    0.0000 </r>
       <r>   10.6374    0.0000 </r>
      </set>
      <set comment="kpoint 124">
       <r>   -7.9424    1.0000 </r>
       <r>   -3.4881    1.0000 </r>
       <r>   -0.6535    1.0000 </r>
       <r>    0.4727    1.0000 </r>
       <r>    5.8973    0.0000 </r>
       <r>    7.3027    0.0000 </r>
       <r>    8.2057    0.0000 </r>
       <r>   10.6496    0.0000 </r>
      </set>
      <set comment="kpoint 125">
       <r>   -7.8111    1.0000 </r>
       <r>   -3.6819    1.0000 </r>
       <r>   -0.8198    1.0000 </r>
       <r>    0.4493    1.0000 </r>
       <r>    5.9773    0.0000 </r>
       <r>    7.3587    0.0000 </r>
       <r>    8.9158    0.0000 </r>
       <r>   10.4598    0.0000 </r>
      </set>
      <set comment="kpoint 126">
       <r>   -7.8473    1.0000 </r>
       <r>   -3.6249    1.0000 </r>
       <r>   -0.8741    1.0000 </r>
       <r>    0.5425    1.0000 </r>
       <r>    6.0966    0.0000 </r>
       <r>    7.3001    0.0000 </r>
       <r>    8.9652    0.0000 </r>
       <r>   10.5431    0.0000 </r>
      </set>
      <set comment="kpoint 127">
       <r>   -8.0343    1.0000 </r>
       <r>   -3.3468    1.0000 </r>
       <r>   -0.7861    1.0000 </r>
       <r>    0.7330    1.0000 </r>
       <r>    6.2253    0.0000 </r>
       <r>    7.2510    0.0000 </r>
       <r>    8.1882    0.0000 </r>
       <r>   10.5337    0.0000 </r>
      </set>
      <set comment="kpoint 128">
       <r>   -8.3036    1.0000 </r>
       <r>   -2.9499    1.0000 </r>
       <r>   -0.5167    1.0000 </r>
       <r>    0.9845    1.0000 </r>
       <r>    6.2663    0.0000 </r>
       <r>    6.9480    0.0000 </r>
       <r>    7.8209    0.0000 </r>
       <r>   10.1384    0.0000 </r>
      </set>
      <set comment="kpoint 129">
       <r>   -8.0460    1.0000 </r>
       <r>   -3.2694    1.0000 </r>
       <r>   -0.2816    1.0000 </r>
       <r>    0.2851    1.0000 </r>
       <r>    5.4201    0.0000 </r>
       <r>    5.9809    0.0000 </r>
       <r>    9.0651    0.0000 </r>
       <r>   11.4374    0.0000 </r>
      </set>
      <set comment="kpoint 130">
       <r>   -7.8156    1.0000 </r>
       <r>   -3.5724    1.0000 </r>
       <r>   -0.6122    1.0000 </r>
       <r>    0.1191    1.0000 </r>
       <r>    5.6628    0.0000 </r>
       <r>    6.5736    0.0000 </r>
       <r>    8.8241    0.0000 </r>
       <r>   11.4315    0.0000 </r>
      </set>
      <set comment="kpoint 131">
       <r>   -7.6750    1.0000 </r>
       <r>   -3.7381    1.0000 </r>
       <r>   -0.9048    1.0000 </r>
       <r>    0.1081    1.0000 </r>
       <r>    5.7764    0.0000 </r>
       <r>    7.4895    0.0000 </r>
       <r>    8.6791    0.0000 </r>
       <r>   10.6221    0.0000 </r>
      </set>
      <set comment="kpoint 132">
       <r>   -7.6736    1.0000 </r>
       <r>   -3.7284    1.0000 </r>
       <r>   -1.0735    1.0000 </r>
       <r>    0.2283    1.0000 </r>
       <r>    5.9328    0.0000 </r>
       <r>    8.0638    0.0000 </r>
       <r>    8.7861    0.0000 </r>
       <r>    9.8356    0.0000 </r>
      </set>
      <set comment="kpoint 133">
[...]
       <r>     9.1929     0.5901    14.0793 </r>
       <r>     9.2055     0.5310    14.0860 </r>
       <r>     9.2181     0.4948    14.0922 </r>
       <r>     9.2307     0.4637    14.0981 </r>
       <r>     9.2433     0.4349    14.1035 </r>
       <r>     9.2559     0.4176    14.1088 </r>
       <r>     9.2685     0.4223    14.1141 </r>
       <r>     9.2811     0.4514    14.1198 </r>
       <r>     9.2937     0.4956    14.1261 </r>
       <r>     9.3063     0.5383    14.1328 </r>
       <r>     9.3189     0.5635    14.1399 </r>
       <r>     9.3315     0.5621    14.1470 </r>
       <r>     9.3441     0.5356    14.1538 </r>
       <r>     9.3567     0.4970    14.1600 </r>
       <r>     9.3693     0.4674    14.1659 </r>
       <r>     9.3819     0.4681    14.1718 </r>
       <r>     9.3945     0.5120    14.1783 </r>
       <r>     9.4071     0.5986    14.1858 </r>
       <r>     9.4197     0.7147    14.1948 </r>
       <r>     9.4323     0.8423    14.2054 </r>
       <r>     9.4449     0.9660    14.2176 </r>
       <r>     9.4575     1.0774    14.2312 </r>
       <r>     9.4701     1.1700    14.2459 </r>
       <r>     9.4827     1.2325    14.2615 </r>
       <r>     9.4953     1.2467    14.2772 </r>
       <r>     9.5079     1.1966    14.2922 </r>
       <r>     9.5205     1.0803    14.3059 </r>
       <r>     9.5332     0.9156    14.3174 </r>
       <r>     9.5458     0.7328    14.3266 </r>
       <r>     9.5584     0.5621    14.3337 </r>
       <r>     9.5710     0.4234    14.3390 </r>
       <r>     9.5836     0.3269    14.3432 </r>
       <r>     9.5962     0.2780    14.3467 </r>
       <r>     9.6088     0.2818    14.3502 </r>
       <r>     9.6214     0.3417    14.3545 </r>
       <r>     9.6340     0.4554    14.3603 </r>
       <r>     9.6466     0.6113    14.3680 </r>
       <r>     9.6592     0.7908    14.3779 </r>
       <r>     9.6718     0.9741    14.3902 </r>
       <r>     9.6844     1.1455    14.4046 </r>
       <r>     9.6970     1.2942    14.4210 </r>
       <r>     9.7096     1.4138    14.4388 </r>
       <r>     9.7222     1.5005    14.4577 </r>
       <r>     9.7348     1.5533    14.4772 </r>
       <r>     9.7474     1.5737    14.4971 </r>
       <r>     9.7600     1.5662    14.5168 </r>
       <r>     9.7726     1.5400    14.5362 </r>
       <r>     9.7852     1.5093    14.5552 </r>
       <r>     9.7978     1.4881    14.5740 </r>
       <r>     9.8104     1.4809    14.5926 </r>
       <r>     9.8230     1.4765    14.6113 </r>
       <r>     9.8356     1.4526    14.6296 </r>
       <r>     9.8482     1.3902    14.6471 </r>
       <r>     9.8608     1.2866    14.6633 </r>
       <r>     9.8734     1.1580    14.6779 </r>
       <r>     9.8860     1.0312    14.6909 </r>
       <r>     9.8986     0.9317    14.7026 </r>
       <r>     9.9112     0.8754    14.7136 </r>
       <r>     9.9238     0.8668    14.7246 </r>
       <r>     9.9364     0.9013    14.7359 </r>
       <r>     9.9490     0.9686    14.7481 </r>
       <r>     9.9616     1.0534    14.7614 </r>
       <r>     9.9742     1.1371    14.7757 </r>
       <r>     9.9868     1.1995    14.7908 </r>
       <r>     9.9994     1.2217    14.8062 </r>
       <r>    10.0120     1.1908    14.8212 </r>
       <r>    10.0246     1.1032    14.8351 </r>
       <r>    10.0372     0.9674    14.8473 </r>
       <r>    10.0498     0.8034    14.8575 </r>
       <r>    10.0624     0.6384    14.8655 </r>
       <r>    10.0750     0.4999    14.8718 </r>
       <r>    10.0876     0.4079    14.8769 </r>
       <r>    10.1002     0.3692    14.8816 </r>
       <r>    10.1128     0.3757    14.8863 </r>
       <r>    10.1254     0.4056    14.8914 </r>
       <r>    10.1380     0.4320    14.8969 </r>
       <r>    10.1506     0.4348    14.9024 </r>
       <r>    10.1632     0.4096    14.9075 </r>
       <r>    10.1758     0.3687    14.9122 </r>
       <r>    10.1884     0.3315    14.9163 </r>
       <r>    10.2010     0.3138    14.9203 </r>
       <r>    10.2136     0.3202    14.9243 </r>
       <r>    10.2262     0.3455    14.9287 </r>
       <r>    10.2388     0.3804    14.9335 </r>
       <r>    10.2514     0.4176    14.9387 </r>
       <r>    10.2640     0.4562    14.9445 </r>
       <r>    10.2766     0.5001    14.9508 </r>
       <r>    10.2892     0.5532    14.9578 </r>
       <r>    10.3018     0.6128    14.9655 </r>
       <r>    10.3144     0.6677    14.9739 </r>
       <r>    10.3270     0.7023    14.9828 </r>
       <r>    10.3396     0.7043    14.9916 </r>
       <r>    10.3522     0.6727    15.0001 </r>
       <r>    10.3648     0.6216    15.0079 </r>
       <r>    10.3774     0.5795    15.0152 </r>
       <r>    10.3900     0.5825    15.0226 </r>
       <r>    10.4026     0.6620    15.0309 </r>
       <r>    10.4152     0.8326    15.0414 </r>
       <r>    10.4278     1.0838    15.0551 </r>
       <r>    10.4404     1.3806    15.0725 </r>
       <r>    10.4530     1.6752    15.0936 </r>
       <r>    10.4656     1.9247    15.1178 </r>
       <r>    10.4782     2.1053    15.1444 </r>
       <r>    10.4908     2.2132    15.1722 </r>
       <r>    10.5034     2.2528    15.2006 </r>
       <r>    10.5160     2.2229    15.2286 </r>
       <r>    10.5286     2.1178    15.2553 </r>
       <r>    10.5412     1.9414    15.2798 </r>
       <r>    10.5538     1.7226    15.3015 </r>
       <r>    10.5664     1.5120    15.3205 </r>
       <r>    10.5790     1.3604    15.3377 </r>
       <r>    10.5916     1.2925    15.3540 </r>
       <r>    10.6042     1.2962    15.3703 </r>
       <r>    10.6168     1.3327    15.3871 </r>
       <r>    10.6294     1.3591    15.4042 </r>
       <r>    10.6420     1.3501    15.4212 </r>
       <r>    10.6546     1.3073    15.4377 </r>
       <r>    10.6672     1.2524    15.4535 </r>
       <r>    10.6798     1.2101    15.4687 </r>
       <r>    10.6924     1.1911    15.4838 </r>
       <r>    10.7050     1.1851    15.4987 </r>
       <r>    10.7176     1.1663    15.5134 </r>
       <r>    10.7302     1.1087    15.5274 </r>
       <r>    10.7428     1.0013    15.5400 </r>
       <r>    10.7554     0.8558    15.5508 </r>
       <r>    10.7680     0.7035    15.5596 </r>
       <r>    10.7806     0.5810    15.5669 </r>
       <r>    10.7932     0.5132    15.5734 </r>
       <r>    10.8058     0.5021    15.5797 </r>
       <r>    10.8184     0.5290    15.5864 </r>
       <r>    10.8310     0.5666    15.5935 </r>
       <r>    10.8436     0.5933    15.6010 </r>
       <r>    10.8562     0.6016    15.6086 </r>
       <r>    10.8688     0.5949    15.6161 </r>
       <r>    10.8814     0.5800    15.6234 </r>
       <r>    10.8940     0.5596    15.6305 </r>
       <r>    10.9067     0.5312    15.6371 </r>
       <r>    10.9193     0.4901    15.6433 </r>
       <r>    10.9319     0.4331    15.6488 </r>
       <r>    10.9445     0.3623    15.6533 </r>
       <r>    10.9571     0.2844    15.6569 </r>
       <r>    10.9697     0.2098    15.6596 </r>
       <r>    10.9823     0.1498    15.6615 </r>
       <r>    10.9949     0.1132    15.6629 </r>
       <r>    11.0075     0.1041    15.6642 </r>
       <r>    11.0201     0.1207    15.6657 </r>
       <r>    11.0327     0.1556    15.6677 </r>
       <r>    11.0453     0.1973    15.6702 </r>
       <r>    11.0579     0.2335    15.6731 </r>
       <r>    11.0705     0.2543    15.6763 </r>
       <r>    11.0831     0.2551    15.6795 </r>
       <r>    11.0957     0.2377    15.6825 </r>
       <r>    11.1083     0.2077    15.6851 </r>
       <r>    11.1209     0.1719    15.6873 </r>
       <r>    11.1335     0.1362    15.6890 </r>
       <r>    11.1461     0.1049    15.6903 </r>
       <r>    11.1587     0.0824    15.6914 </r>
       <r>    11.1713     0.0742    15.6923 </r>
       <r>    11.1839     0.0867    15.6934 </r>
       <r>    11.1965     0.1257    15.6950 </r>
       <r>    11.2091     0.1925    15.6974 </r>
       <r>    11.2217     0.2804    15.7009 </r>
       <r>    11.2343     0.3735    15.7057 </r>
       <r>    11.2469     0.4492    15.7113 </r>
       <r>    11.2595     0.4861    15.7174 </r>
       <r>    11.2721     0.4727    15.7234 </r>
       <r>    11.2847     0.4130    15.7286 </r>
       <r>    11.2973     0.3243    15.7327 </r>
       <r>    11.3099     0.2300    15.7356 </r>
       <r>    11.3225     0.1507    15.7375 </r>
       <r>    11.3351     0.1007    15.7388 </r>
       <r>    11.3477     0.0884    15.7399 </r>
       <r>    11.3603     0.1198    15.7414 </r>
       <r>    11.3729     0.1994    15.7439 </r>
       <r>    11.3855     0.3258    15.7480 </r>
       <r>    11.3981     0.4844    15.7541 </r>
       <r>    11.4107     0.6454    15.7622 </r>
       <r>    11.4233     0.7711    15.7719 </r>
       <r>    11.4359     0.8330    15.7824 </r>
       <r>    11.4485     0.8266    15.7929 </r>
       <r>    11.4611     0.7730    15.8026 </r>
       <r>    11.4737     0.7035    15.8115 </r>
       <r>    11.4863     0.6397    15.8195 </r>
       <r>    11.4989     0.5828    15.8269 </r>
       <r>    11.5115     0.5205    15.8334 </r>
       <r>    11.5241     0.4413    15.8390 </r>
       <r>    11.5367     0.3458    15.8433 </r>
       <r>    11.5493     0.2462    15.8465 </r>
       <r>    11.5619     0.1577    15.8484 </r>
       <r>    11.5745     0.0907    15.8496 </r>
       <r>    11.5871     0.0474    15.8502 </r>
       <r>    11.5997     0.0248    15.8505 </r>
       <r>    11.6123     0.0185    15.8507 </r>
       <r>    11.6249     0.0263    15.8511 </r>
       <r>    11.6375     0.0488    15.8517 </r>
       <r>    11.6501     0.0871    15.8528 </r>
       <r>    11.6627     0.1396    15.8545 </r>
       <r>    11.6753     0.1990    15.8570 </r>
       <r>    11.6879     0.2529    15.8602 </r>
       <r>    11.7005     0.2889    15.8639 </r>
       <r>    11.7131     0.3005    15.8676 </r>
       <r>    11.7257     0.2903    15.8713 </r>
       <r>    11.7383     0.2672    15.8747 </r>
       <r>    11.7509     0.2414    15.8777 </r>
       <r>    11.7635     0.2204    15.8805 </r>
       <r>    11.7761     0.2094    15.8831 </r>
       <r>    11.7887     0.2119    15.8858 </r>
       <r>    11.8013     0.2283    15.8887 </r>
       <r>    11.8139     0.2531    15.8919 </r>
       <r>    11.8265     0.2740    15.8953 </r>
       <r>    11.8391     0.2772    15.8988 </r>
       <r>    11.8517     0.2549    15.9020 </r>
       <r>    11.8643     0.2098    15.9047 </r>
       <r>    11.8769     0.1535    15.9066 </r>
       <r>    11.8895     0.0999    15.9079 </r>
       <r>    11.9021     0.0585    15.9086 </r>
       <r>    11.9147     0.0332    15.9090 </r>
       <r>    11.9273     0.0233    15.9093 </r>
       <r>    11.9399     0.0268    15.9096 </r>
       <r>    11.9525     0.0429    15.9102 </r>
       <r>    11.9651     0.0714    15.9111 </r>
       <r>    11.9777     0.1124    15.9125 </r>
       <r>    11.9903     0.1634    15.9146 </r>
       <r>    12.0029     0.2184    15.9173 </r>
       <r>    12.0155     0.2667    15.9207 </r>
       <r>    12.0281     0.2956    15.9244 </r>
       <r>    12.0407     0.2957    15.9281 </r>
       <r>    12.0533     0.2651    15.9315 </r>
       <r>    12.0659     0.2122    15.9341 </r>
       <r>    12.0785     0.1512    15.9360 </r>
       <r>    12.0911     0.0958    15.9373 </r>
       <r>    12.1037     0.0546    15.9379 </r>
       <r>    12.1163     0.0297    15.9383 </r>
       <r>    12.1289     0.0190    15.9386 </r>
       <r>    12.1415     0.0191    15.9388 </r>
       <r>    12.1541     0.0270    15.9391 </r>
       <r>    12.1667     0.0394    15.9396 </r>
       <r>    12.1793     0.0527    15.9403 </r>
       <r>    12.1919     0.0627    15.9411 </r>
       <r>    12.2045     0.0658    15.9419 </r>
       <r>    12.2171     0.0611    15.9427 </r>
       <r>    12.2297     0.0506    15.9433 </r>
       <r>    12.2423     0.0383    15.9438 </r>
       <r>    12.2549     0.0288    15.9442 </r>
       <r>    12.2675     0.0253    15.9445 </r>
       <r>    12.2802     0.0295    15.9449 </r>
       <r>    12.2928     0.0412    15.9454 </r>
       <r>    12.3054     0.0591    15.9461 </r>
       <r>    12.3180     0.0815    15.9472 </r>
       <r>    12.3306     0.1077    15.9485 </r>
       <r>    12.3432     0.1380    15.9502 </r>
       <r>    12.3558     0.1725    15.9524 </r>
       <r>    12.3684     0.2090    15.9551 </r>
       <r>    12.3810     0.2425    15.9581 </r>
       <r>    12.3936     0.2666    15.9615 </r>
       <r>    12.4062     0.2767    15.9650 </r>
       <r>    12.4188     0.2723    15.9684 </r>
       <r>    12.4314     0.2560    15.9716 </r>
       <r>    12.4440     0.2319    15.9745 </r>
       <r>    12.4566     0.2035    15.9771 </r>
       <r>    12.4692     0.1733    15.9793 </r>
       <r>    12.4818     0.1429    15.9811 </r>
       <r>    12.4944     0.1135    15.9825 </r>
       <r>    12.5070     0.0864    15.9836 </r>
       <r>    12.5196     0.0639    15.9844 </r>
       <r>    12.5322     0.0489    15.9850 </r>
       <r>    12.5448     0.0445    15.9856 </r>
       <r>    12.5574     0.0523    15.9862 </r>
       <r>    12.5700     0.0710    15.9871 </r>
       <r>    12.5826     0.0958    15.9883 </r>
       <r>    12.5952     0.1185    15.9898 </r>
       <r>    12.6078     0.1309    15.9915 </r>
       <r>    12.6204     0.1280    15.9931 </r>
       <r>    12.6330     0.1105    15.9945 </r>
       <r>    12.6456     0.0841    15.9956 </r>
       <r>    12.6582     0.0565    15.9963 </r>
       <r>    12.6708     0.0335    15.9967 </r>
       <r>    12.6834     0.0175    15.9969 </r>
       <r>    12.6960     0.0080    15.9970 </r>
       <r>    12.7086     0.0033    15.9970 </r>
       <r>    12.7212     0.0012    15.9971 </r>
       <r>    12.7338     0.0004    15.9971 </r>
       <r>    12.7464     0.0001    15.9971 </r>
       <r>    12.7590     0.0000    15.9971 </r>
       <r>    12.7716     0.0000    15.9971 </r>
       <r>    12.7842     0.0000    15.9971 </r>
       <r>    12.7968     0.0000    15.9971 </r>
       <r>    12.8094     0.0000    15.9971 </r>
       <r>    12.8220     0.0000    15.9971 </r>
       <r>    12.8346     0.0000    15.9971 </r>
       <r>    12.8472     0.0001    15.9971 </r>
       <r>    12.8598     0.0003    15.9971 </r>
       <r>    12.8724     0.0008    15.9971 </r>
       <r>    12.8850     0.0021    15.9971 </r>
       <r>    12.8976     0.0045    15.9972 </r>
       <r>    12.9102     0.0085    15.9973 </r>
       <r>    12.9228     0.0143    15.9975 </r>
       <r>    12.9354     0.0213    15.9977 </r>
       <r>    12.9480     0.0278    15.9981 </r>
       <r>    12.9606     0.0321    15.9985 </r>
       <r>    12.9732     0.0326    15.9989 </r>
       <r>    12.9858     0.0292    15.9993 </r>
       <r>    12.9984     0.0231    15.9996 </r>
       <r>    13.0110     0.0161    15.9998 </r>
       <r>    13.0236     0.0099    15.9999 </r>
       <r>    13.0362     0.0054    15.9999 </r>
       <r>    13.0488     0.0026    16.0000 </r>
       <r>    13.0614     0.0011    16.0000 </r>
       <r>    13.0740     0.0004    16.0000 </r>
       <r>    13.0866     0.0001    16.0000 </r>
       <r>    13.0992     0.0000    16.0000 </r>
       <r>    13.1118     0.0000    16.0000 </r>
       <r>    13.1244     0.0000    16.0000 </r>
       <r>    13.1370     0.0000    16.0000 </r>
       <r>    13.1496     0.0000    16.0000 </r>
       <r>    13.1622     0.0000    16.0000 </r>
       <r>    13.1748     0.0000    16.0000 </r>
       <r>    13.1874     0.0000    16.0000 </r>
       <r>    13.2000     0.0000    16.0000 </r>
       <r>    13.2126     0.0000    16.0000 </r>
       <r>    13.2252     0.0000    16.0000 </r>
       <r>    13.2378     0.0000    16.0000 </r>
       <r>    13.2504     0.0000    16.0000 </r>
       <r>    13.2630     0.0000    16.0000 </r>
       <r>    13.2756     0.0000    16.0000 </r>
       <r>    13.2882     0.0000    16.0000 </r>
       <r>    13.3008     0.0000    16.0000 </r>
       <r>    13.3134     0.0000    16.0000 </r>
       <r>    13.3260     0.0000    16.0000 </r>
       <r>    13.3386     0.0000    16.0000 </r>
       <r>    13.3512     0.0000    16.0000 </r>
       <r>    13.3638     0.0000    16.0000 </r>
       <r>    13.3764     0.0000    16.0000 </r>
       <r>    13.3890     0.0000    16.0000 </r>
       <r>    13.4016     0.0000    16.0000 </r>
       <r>    13.4142     0.0000    16.0000 </r>
       <r>    13.4268     0.0000    16.0000 </r>
       <r>    13.4394     0.0000    16.0000 </r>
       <r>    13.4520     0.0000    16.0000 </r>
       <r>    13.4646     0.0000    16.0000 </r>
       <r>    13.4772     0.0000    16.0000 </r>
       <r>    13.4898     0.0000    16.0000 </r>
       <r>    13.5024     0.0000    16.0000 </r>
       <r>    13.5150     0.0000    16.0000 </r>
       <r>    13.5276     0.0000    16.0000 </r>
       <r>    13.5402     0.0000    16.0000 </r>
       <r>    13.5528     0.0000    16.0000 </r>
       <r>    13.5654     0.0000    16.0000 </r>
       <r>    13.5780     0.0000    16.0000 </r>
       <r>    13.5906     0.0000    16.0000 </r>
       <r>    13.6032     0.0000    16.0000 </r>
       <r>    13.6158     0.0000    16.0000 </r>
       <r>    13.6284     0.0000    16.0000 </r>
       <r>    13.6410     0.0000    16.0000 </r>
       <r>    13.6536     0.0000    16.0000 </r>
       <r>    13.6663     0.0000    16.0000 </r>
       <r>    13.6789     0.0000    16.0000 </r>
       <r>    13.6915     0.0000    16.0000 </r>
       <r>    13.7041     0.0000    16.0000 </r>
       <r>    13.7167     0.0000    16.0000 </r>
       <r>    13.7293     0.0000    16.0000 </r>
       <r>    13.7419     0.0000    16.0000 </r>
       <r>    13.7545     0.0000    16.0000 </r>
       <r>    13.7671     0.0000    16.0000 </r>
       <r>    13.7797     0.0000    16.0000 </r>
       <r>    13.7923     0.0000    16.0000 </r>
       <r>    13.8049     0.0000    16.0000 </r>
       <r>    13.8175     0.0000    16.0000 </r>
       <r>    13.8301     0.0000    16.0000 </r>
       <r>    13.8427     0.0000    16.0000 </r>
       <r>    13.8553     0.0000    16.0000 </r>
       <r>    13.8679     0.0000    16.0000 </r>
       <r>    13.8805     0.0000    16.0000 </r>
       <r>    13.8931     0.0000    16.0000 </r>
       <r>    13.9057     0.0000    16.0000 </r>
       <r>    13.9183     0.0000    16.0000 </r>
       <r>    13.9309     0.0000    16.0000 </r>
       <r>    13.9435     0.0000    16.0000 </r>
       <r>    13.9561     0.0000    16.0000 </r>
       <r>    13.9687     0.0000    16.0000 </r>
       <r>    13.9813     0.0000    16.0000 </r>
       <r>    13.9939     0.0000    16.0000 </r>
       <r>    14.0065     0.0000    16.0000 </r>
       <r>    14.0191     0.0000    16.0000 </r>
       <r>    14.0317     0.0000    16.0000 </r>
       <r>    14.0443     0.0000    16.0000 </r>
       <r>    14.0569     0.0000    16.0000 </r>
       <r>    14.0695     0.0000    16.0000 </r>
       <r>    14.0821     0.0000    16.0000 </r>
       <r>    14.0947     0.0000    16.0000 </r>
       <r>    14.1073     0.0000    16.0000 </r>
      </set>
     </set>
    </array>
   </total>
  </dos>
 </calculation>
 <structure name="finalpos" >
  <crystal>
   <varray name="basis" >
    <v>       0.00000000       2.82685000       2.82685000 </v>
    <v>       2.82685000       0.00000000       2.82685000 </v>
    <v>       2.82685000       2.82685000       0.00000000 </v>
   </varray>
   <i name="volume">     45.17917421 </i>
   <varray name="rec_basis" >
    <v>      -0.17687532       0.17687532       0.17687532 </v>
    <v>       0.17687532      -0.17687532       0.17687532 </v>
    <v>       0.17687532       0.17687532      -0.17687532 </v>
   </varray>
  </crystal>
  <varray name="positions" >
   <v>       0.25000000       0.25000000       0.25000000 </v>
   <v>       0.00000000       0.00000000       0.00000000 </v>
  </varray>
 </structure>
</modeling>
