    2    2    1    1
  0.3167083E+02  0.2468816E-09  0.2468816E-09  0.1200000E-08  0.5000000E-15
  1.000000000000000E-004
  CAR 
 unknown system                          
      8     48      8
 
  0.0000000E+00  0.0000000E+00  0.0000000E+00  0.3906250E-02
    1      -21.253818   1.000000
    2       -9.355129   1.000000
    3       -4.792587   1.000000
    4       -4.791704   1.000000
    5        1.457205   0.000000
    6        2.611139   0.000000
    7        3.357740   0.000000
    8        6.528553   0.000000
 
  0.6250000E-01  0.0000000E+00  0.0000000E+00  0.2343750E-01
    1      -21.161676   1.000000
    2       -9.245920   1.000000
    3       -5.167687   1.000000
    4       -4.988349   1.000000
    5        1.582546   0.000000
    6        2.736369   0.000000
    7        3.483567   0.000000
    8        6.601568   0.000000
 
  0.1250000E+00  0.0000000E+00  0.0000000E+00  0.2343750E-01
    1      -20.885784   1.000000
    2       -8.917742   1.000000
    3       -6.175438   1.000000
    4       -5.493431   1.000000
    5        1.958640   0.000000
    6        3.112079   0.000000
    7        3.861184   0.000000
    8        6.617485   0.000000
 
  0.1875000E+00  0.0000000E+00  0.0000000E+00  0.2343750E-01
    1      -20.427915   1.000000
    2       -8.376490   1.000000
    3       -7.582600   1.000000
    4       -6.143376   1.000000
    5        2.585083   0.000000
    6        3.735423   0.000000
    7        4.490017   0.000000
    8        6.492868   0.000000
 
  0.2500000E+00  0.0000000E+00  0.0000000E+00  0.2343750E-01
    1      -19.791305   1.000000
    2       -9.182185   1.000000
    3       -7.633706   1.000000
    4       -6.798345   1.000000
    5        3.460448   0.000000
    6        4.579946   0.000000
    7        5.364599   0.000000
    8        5.507768   0.000000
 
  0.3125000E+00  0.0000000E+00  0.0000000E+00  0.2343750E-01
    1      -18.981379   1.000000
    2      -10.835052   1.000000
    3       -7.369153   1.000000
    4       -6.710436   1.000000
    5        3.711371   0.000000
    6        4.580583   0.000000
    7        5.762832   0.000000
    8        5.978213   0.000000
 
  0.3750000E+00  0.0000000E+00  0.0000000E+00  0.2343750E-01
    1      -18.008579   1.000000
    2      -12.453535   1.000000
    3       -7.802645   1.000000
    4       -5.660050   1.000000
    5        2.023451   0.000000
    6        5.718243   0.000000
    7        6.010664   0.000000
    8        7.112183   0.000000
 
  0.4375000E+00  0.0000000E+00  0.0000000E+00  0.2343750E-01
    1      -16.903531   1.000000
    2      -13.961514   1.000000
    3       -8.071609   1.000000
    4       -4.633843   1.000000
    5        0.582455   0.000000
    6        5.623684   0.000000
    7        7.570032   0.000000
    8        8.694471   0.000000
 
  0.5000000E+00  0.0000000E+00  0.0000000E+00  0.1171875E-01
    1      -16.028523   1.000000
    2      -14.972875   1.000000
    3       -8.162710   1.000000
    4       -4.115044   1.000000
    5       -0.079861   0.000000
    6        5.578629   0.000000
    7        9.321114   0.000000
    8        9.466103   0.000000
 
  0.6250000E-01  0.6250000E-01  0.0000000E+00  0.2343750E-01
    1      -20.977657   1.000000
    2       -9.027116   1.000000
    3       -5.817993   1.000000
    4       -5.380538   1.000000
    5        1.833318   0.000000
    6        2.986893   0.000000
    7        3.735384   0.000000
    8        6.742842   0.000000
 
  0.1250000E+00  0.6250000E-01  0.0000000E+00  0.4687500E-01
    1      -20.610785   1.000000
    2       -8.592320   1.000000
    3       -6.951959   1.000000
    4       -6.034417   1.000000
    5        2.334780   0.000000
    6        3.486828   0.000000
    7        4.239111   0.000000
    8        6.860642   0.000000
 
  0.1875000E+00  0.6250000E-01  0.0000000E+00  0.4687500E-01
    1      -20.063536   1.000000
    2       -8.401988   1.000000
    3       -7.949579   1.000000
    4       -6.740629   1.000000
    5        3.086143   0.000000
    6        4.230257   0.000000
    7        4.993560   0.000000
    8        6.174681   0.000000
 
  0.2500000E+00  0.6250000E-01  0.0000000E+00  0.4687500E-01
    1      -19.340201   1.000000
    2       -9.998399   1.000000
    3       -7.383345   1.000000
    4       -7.114065   1.000000
    5        4.085288   0.000000
    6        4.479497   0.000000
    7        5.276198   0.000000
    8        5.986341   0.000000
 
  0.3125000E+00  0.6250000E-01  0.0000000E+00  0.4687500E-01
    1      -18.448285   1.000000
    2      -11.619364   1.000000
    3       -7.901217   1.000000
    4       -6.118477   1.000000
    5        2.804977   0.000000
    6        5.324696   0.000000
    7        6.288758   0.000000
    8        6.486036   0.000000
 
  0.3750000E+00  0.6250000E-01  0.0000000E+00  0.4687500E-01
    1      -17.404351   1.000000
    2      -13.179679   1.000000
    3       -8.260536   1.000000
    4       -5.048554   1.000000
    5        1.222063   0.000000
    6        6.087345   0.000000
    7        6.839372   0.000000
    8        7.948547   0.000000
 
  0.4375000E+00  0.6250000E-01  0.0000000E+00  0.4687500E-01
    1      -16.289754   1.000000
    2      -14.560619   1.000000
    3       -8.444019   1.000000
    4       -4.178077   1.000000
    5        0.079307   0.000000
    6        6.003027   0.000000
    7        8.542043   0.000000
    8        9.602923   0.000000
 
  0.1250000E+00  0.1250000E+00  0.0000000E+00  0.2343750E-01
    1      -20.154547   1.000000
    2       -8.055373   1.000000
    3       -7.981159   1.000000
    4       -6.895062   1.000000
    5        2.961469   0.000000
    6        4.109414   0.000000
    7        4.869382   0.000000
    8        6.432698   0.000000
 
  0.1875000E+00  0.1250000E+00  0.0000000E+00  0.4687500E-01
    1      -19.520573   1.000000
    2       -9.278872   1.000000
    3       -7.740906   1.000000
    4       -7.317910   1.000000
    5        3.837214   0.000000
    6        4.918029   0.000000
    7        5.059659   0.000000
    8        5.750295   0.000000
 
  0.2500000E+00  0.1250000E+00  0.0000000E+00  0.4687500E-01
    1      -18.714841   1.000000
    2      -10.765715   1.000000
    3       -8.409419   1.000000
    4       -6.400961   1.000000
    5        3.426759   0.000000
    6        4.959053   0.000000
    7        6.089618   0.000000
    8        6.872175   0.000000
 
  0.3125000E+00  0.1250000E+00  0.0000000E+00  0.4687500E-01
    1      -17.748566   1.000000
    2      -12.296658   1.000000
    3       -8.887249   1.000000
    4       -5.353671   1.000000
    5        1.852197   0.000000
    6        6.318523   0.000000
    7        7.311634   0.000000
    8        7.418694   0.000000
 
  0.3750000E+00  0.1250000E+00  0.0000000E+00  0.4687500E-01
    1      -16.653809   1.000000
    2      -13.756570   1.000000
    3       -9.175327   1.000000
    4       -4.317793   1.000000
    5        0.469846   0.000000
    6        7.155937   0.000000
    7        7.935979   0.000000
    8        8.920654   0.000000
 
  0.4375000E+00  0.1250000E+00  0.0000000E+00  0.2343750E-01
    1      -15.791373   1.000000
    2      -14.744448   1.000000
    3       -9.271601   1.000000
    4       -3.779190   1.000000
    5       -0.188884   0.000000
    6        7.115374   0.000000
    7        9.644532   0.000000
    8        9.811785   0.000000
 
  0.1875000E+00  0.1875000E+00  0.0000000E+00  0.2343750E-01
    1      -18.804113   1.000000
    2      -10.264486   1.000000
    3       -8.816100   1.000000
    4       -6.496137   1.000000
    5        3.676282   0.000000
    6        4.835592   0.000000
    7        5.948867   0.000000
    8        6.757122   0.000000
 
  0.2500000E+00  0.1875000E+00  0.0000000E+00  0.4687500E-01
    1      -17.923029   1.000000
    2      -11.484911   1.000000
    3       -9.623316   1.000000
    4       -5.514686   1.000000
    5        2.264175   0.000000
    6        6.076346   0.000000
    7        7.134005   0.000000
    8        8.006801   0.000000
 
  0.3125000E+00  0.1875000E+00  0.0000000E+00  0.4687500E-01
    1      -16.896111   1.000000
    2      -12.853270   1.000000
    3      -10.102787   1.000000
    4       -4.442552   1.000000
    5        0.874567   0.000000
    6        7.547413   0.000000
    7        8.451982   0.000000
    8        8.805773   0.000000
 
  0.3750000E+00  0.1875000E+00  0.0000000E+00  0.4687500E-01
    1      -15.806782   1.000000
    2      -14.143435   1.000000
    3      -10.326951   1.000000
    4       -3.526862   1.000000
    5       -0.211273   0.000000
    6        8.692454   0.000000
    7        9.245315   0.000000
    8        9.523385   0.000000
 
  0.2500000E+00  0.2500000E+00  0.0000000E+00  0.2343750E-01
    1      -16.979126   1.000000
    2      -12.283628   1.000000
    3      -10.693655   1.000000
    4       -4.490807   1.000000
    5        1.049075   0.000000
    6        7.426774   0.000000
    7        8.276382   0.000000
    8        9.375194   0.000000
 
  0.3125000E+00  0.2500000E+00  0.0000000E+00  0.4687500E-01
    1      -15.919206   1.000000
    2      -13.328699   1.000000
    3      -11.301310   1.000000
    4       -3.424810   1.000000
    5       -0.130334   0.000000
    6        8.980121   0.000000
    7        9.042979   0.000000
    8       10.434896   0.000000
 
  0.3750000E+00  0.2500000E+00  0.0000000E+00  0.2343750E-01
    1      -15.081233   1.000000
    2      -14.195239   1.000000
    3      -11.475858   1.000000
    4       -2.779526   1.000000
    5       -0.812735   0.000000
    6        9.154888   0.000000
    7       10.320747   0.000000
    8       10.518368   0.000000
 
  0.3125000E+00  0.3125000E+00  0.0000000E+00  0.2343750E-01
    1      -14.898053   1.000000
    2      -13.905654   1.000000
    3      -12.116616   1.000000
    4       -2.378400   1.000000
    5       -1.148643   0.000000
    6        8.910693   0.000000
    7       10.484302   0.000000
    8       11.238873   0.000000
 
  0.3333330E+00  0.3333333E+00  0.0000000E+00  0.0000000E+00
    1      -14.348380   1.000000
    2      -14.348345   1.000000
    3      -12.285398   1.000000
    4       -1.759186   0.000000
    5       -1.759142   0.000000
    6        8.853700   0.000000
    7       11.114744   0.000000
    8       11.114758   0.000000
 
  0.3348584E+00  0.3276403E+00  0.0000000E+00  0.0000000E+00
    1      -14.407511   1.000000
    2      -14.292216   1.000000
    3      -12.281328   1.000000
    4       -1.840529   0.000000
    5       -1.678279   0.000000
    6        8.855075   0.000000
    7       11.082861   0.000000
    8       11.135233   0.000000
 
  0.3363839E+00  0.3219472E+00  0.0000000E+00  0.0000000E+00
    1      -14.466790   1.000000
    2      -14.242095   1.000000
    3      -12.268513   1.000000
    4       -1.921001   0.000000
    5       -1.598606   0.000000
    6        8.859292   0.000000
    7       11.044729   0.000000
    8       11.141851   0.000000
 
  0.3379093E+00  0.3162542E+00  0.0000000E+00  0.0000000E+00
    1      -14.526208   1.000000
    2      -14.198237   1.000000
    3      -12.246874   1.000000
    4       -2.000591   0.000088
    5       -1.520396   0.000000
    6        8.866398   0.000000
    7       10.999598   0.000000
    8       11.137502   0.000000
 
  0.3394348E+00  0.3105612E+00  0.0000000E+00  0.0000000E+00
    1      -14.585761   1.000000
    2      -14.160694   1.000000
    3      -12.216387   1.000000
    4       -2.079293   0.063584
    5       -1.443693   0.000000
    6        8.876430   0.000000
    7       10.947155   0.000000
    8       11.125166   0.000000
 
  0.3409602E+00  0.3048681E+00  0.0000000E+00  0.0000000E+00
    1      -14.645434   1.000000
    2      -14.129344   1.000000
    3      -12.177212   1.000000
    4       -2.157101   0.750280
    5       -1.368537   0.000000
    6        8.889397   0.000000
    7       10.887603   0.000000
    8       11.106787   0.000000
 
  0.3333330E+00  0.3333333E+00  0.0000000E+00  0.0000000E+00
    1      -14.348380   1.000000
    2      -14.348345   1.000000
    3      -12.285398   1.000000
    4       -1.759186   0.000000
    5       -1.759142   0.000000
    6        8.853700   0.000000
    7       11.114744   0.000000
    8       11.114758   0.000000
 
  0.3318076E+00  0.3390263E+00  0.0000000E+00  0.0000000E+00
    1      -14.410206   1.000000
    2      -14.289397   1.000000
    3      -12.281437   1.000000
    4       -1.841640   0.000000
    5       -1.677151   0.000000
    6        8.855041   0.000000
    7       11.076800   0.000000
    8       11.140909   0.000000
 
  0.3302821E+00  0.3447194E+00  0.0000000E+00  0.0000000E+00
    1      -14.477292   1.000000
    2      -14.230520   1.000000
    3      -12.269525   1.000000
    4       -1.925402   0.000000
    5       -1.594073   0.000000
    6        8.859025   0.000000
    7       11.020888   0.000000
    8       11.162961   0.000000
 
  0.3287567E+00  0.3504124E+00  0.0000000E+00  0.0000000E+00
    1      -14.549105   1.000000
    2      -14.171775   1.000000
    3      -12.250420   1.000000
    4       -2.010491   0.000259
    5       -1.510282   0.000000
    6        8.865481   0.000000
    7       10.947622   0.000000
    8       11.180699   0.000000
 
  0.3272312E+00  0.3561054E+00  0.0000000E+00  0.0000000E+00
    1      -14.625097   1.000000
    2      -14.113092   1.000000
    3      -12.224422   1.000000
    4       -2.096685   0.150696
    5       -1.425497   0.000000
    6        8.874262   0.000000
    7       10.859133   0.000000
    8       11.195157   0.000000
 
  0.3257058E+00  0.3617985E+00  0.0000000E+00  0.0000000E+00
    1      -14.704744   1.000000
    2      -14.054464   1.000000
    3      -12.192202   1.000000
    4       -2.184001   0.924529
    5       -1.339864   0.000000
    6        8.885146   0.000000
    7       10.757856   0.000000
    8       11.205878   0.000000
 
  0.0000000E+00  0.0000000E+00  0.0000000E+00  0.0000000E+00
    1      -21.253818   1.000000
    2       -9.355129   1.000000
    3       -4.792587   1.000000
    4       -4.791704   1.000000
    5        1.457205   0.000000
    6        2.611139   0.000000
    7        3.357740   0.000000
    8        6.528553   0.000000
 
 -0.1525446E-02  0.5693037E-02  0.0000000E+00  0.0000000E+00
    1      -21.253203   1.000000
    2       -9.354504   1.000000
    3       -4.794885   1.000000
    4       -4.793350   1.000000
    5        1.458042   0.000000
    6        2.611945   0.000000
    7        3.358580   0.000000
    8        6.529300   0.000000
 
 -0.3050893E-02  0.1138607E-01  0.0000000E+00  0.0000000E+00
    1      -21.251361   1.000000
    2       -9.352722   1.000000
    3       -4.802285   1.000000
    4       -4.797501   1.000000
    5        1.460552   0.000000
    6        2.614336   0.000000
    7        3.361099   0.000000
    8        6.531503   0.000000
 
 -0.4576339E-02  0.1707911E-01  0.0000000E+00  0.0000000E+00
    1      -21.248287   1.000000
    2       -9.349077   1.000000
    3       -4.814970   1.000000
    4       -4.804224   1.000000
    5        1.464731   0.000000
    6        2.618516   0.000000
    7        3.365294   0.000000
    8        6.535573   0.000000
 
 -0.6101785E-02  0.2277215E-01  0.0000000E+00  0.0000000E+00
    1      -21.243985   1.000000
    2       -9.344177   1.000000
    3       -4.832874   1.000000
    4       -4.813720   1.000000
    5        1.470584   0.000000
    6        2.624305   0.000000
    7        3.371168   0.000000
    8        6.541149   0.000000
 
 -0.7627231E-02  0.2846518E-01  0.0000000E+00  0.0000000E+00
    1      -21.238451   1.000000
    2       -9.337581   1.000000
    3       -4.855813   1.000000
    4       -4.825849   1.000000
    5        1.478111   0.000000
    6        2.631834   0.000000
    7        3.378722   0.000000
    8        6.548494   0.000000
